CrayPat/X:  Version 7.1.1 Revision 7c0ddd79b  08/19/19 16:58:46
LAMMPS (20 Apr 2018)
OMP_NUM_THREADS environment is not set. Defaulting to 1 thread. (../comm.cpp:90)
  using 1 OpenMP thread(s) per MPI task
Lattice spacing in x,y,z = 1.82574 1.82574 1.82574
Created orthogonal box = (0 0 -0.182574) to (73.0297 73.0297 0.182574)
  64 by 34 by 1 MPI processor grid
Created 3200 atoms
  Time spent = 0.00462413 secs
Neighbor list info ...
  update every 1 steps, delay 0 steps, check yes
  max neighbors/atom: 2000, page size: 100000
  master list distance cutoff = 2.8
  ghost atom cutoff = 2.8
  binsize = 1.4, bins = 53 53 1
  1 neighbor lists, perpetual/occasional/extra = 1 0 0
  (1) pair lj/cut, perpetual
      attributes: half, newton on
      pair build: half/bin/atomonly/newton
      stencil: half/bin/2d/newton
      bin: standard
Setting up Verlet run ...
  Unit style    : lj
  Current step  : 0
  Time step     : 0.005
Per MPI rank memory allocation (min/avg/max) = 2.702 | 2.797 | 2.952 Mbytes
Step Temp E_pair E_mol TotEng Press 
       0            1     -1.56492            0   -0.5652325   -1.5346995 
    1000    1.0063515   -1.5732592            0  -0.56722209    1.0061204 
    2000   0.95792094   -1.5781469            0  -0.62052531   0.96571772 
    3000   0.98401573    -1.588743            0  -0.60503472   0.97094222 
    4000   0.99740124   -1.5757024            0  -0.57861287   0.99998732 
    5000    1.0348886   -1.6022633            0  -0.56769811   0.97795086 
Loop time of 5.08917 on 2176 procs for 5000 steps with 3200 atoms

Performance: 424430.592 tau/day, 982.478 timesteps/s
94.1% CPU use with 2176 MPI tasks x 1 OpenMP threads

MPI task timing breakdown:
Section |  min time  |  avg time  |  max time  |%varavg| %total
---------------------------------------------------------------
Pair    | 0.019049   | 0.022577   | 0.028817   |   1.0 |  0.44
Neigh   | 0.0069489  | 0.0082334  | 0.01084    |   0.6 |  0.16
Comm    | 2.5568     | 2.7666     | 3.3093     |   7.3 | 54.36
Output  | 0.0062208  | 0.0069034  | 0.0071359  |   0.1 |  0.14
Modify  | 0.044319   | 0.048485   | 0.065122   |   1.1 |  0.95
Other   |            | 2.236      |            |       | 43.94

Nlocal:    1.47059 ave 4 max 0 min
Histogram: 156 0 945 0 0 972 0 101 0 2
Nghost:    29.7891 ave 39 max 22 min
Histogram: 19 78 286 246 701 556 148 126 15 1
Neighs:    10.324 ave 33 max 0 min
Histogram: 178 392 523 392 399 200 61 27 1 3

Total # of neighbors = 22465
Ave neighs/atom = 7.02031
Neighbor list builds = 601
Dangerous builds = 0
Setting up Verlet run ...
  Unit style    : lj
  Current step  : 0
  Time step     : 0.005
Per MPI rank memory allocation (min/avg/max) = 3.327 | 3.327 | 3.327 Mbytes
Step Temp c_vacf[4] v_vacf 
       0    1.0348886    2.0691304            0 
    5000      1.01618  0.010970342    0.3062452 
   10000    1.0210865 0.0018251732    0.3939561 
   15000    1.0201407 -0.0051204578   0.50191967 
   20000    1.0169872  0.032935727   0.54134779 
   25000    1.0117798  -0.01580966     0.615112 
   30000    1.0284167 -0.0089673686   0.71447644 
   35000    1.0072394 -0.027346896   0.70401385 
   40000    1.0180797 -0.024551015   0.74660961 
Loop time of 59.3895 on 2176 procs for 40000 steps with 3200 atoms

Performance: 290960.484 tau/day, 673.520 timesteps/s
95.8% CPU use with 2176 MPI tasks x 1 OpenMP threads

MPI task timing breakdown:
Section |  min time  |  avg time  |  max time  |%varavg| %total
---------------------------------------------------------------
Pair    | 0.16373    | 0.18562    | 0.25148    |   2.8 |  0.31
Neigh   | 0.063019   | 0.070756   | 0.091671   |   1.8 |  0.12
Comm    | 21.211     | 22.302     | 26.873     |  22.0 | 37.55
Output  | 0.0093303  | 0.0096159  | 0.010101   |   0.1 |  0.02
Modify  | 22.459     | 27.038     | 28.134     |  20.1 | 45.53
Other   |            | 9.783      |            |       | 16.47

Nlocal:    1.47059 ave 4 max 0 min
Histogram: 165 0 923 0 0 989 0 97 0 2
Nghost:    29.9403 ave 37 max 19 min
Histogram: 1 6 45 133 162 549 708 401 151 20
Neighs:    10.2996 ave 33 max 0 min
Histogram: 177 381 505 428 420 176 66 17 3 3

Total # of neighbors = 22412
Experiment data directory written:
/global/project/projectdirs/m3231/yijia/cook/mpi/LAMMPS/lmp_cori+pat+136048-2993t
Ave neighs/atom = 7.00375
Neighbor list builds = 5179
Dangerous builds = 0
Total wall time: 0:01:06
Fri Jan 22 14:56:44 PST 2021
