Starting..
====================
iteration 0
Starting job in nedd policy..
startTime:Mon Nov 30 14:00:24 PST 2020

Input file(s): simple-H2O.xml 

=====================================================
                    QMCPACK 3.7.0

       (c) Copyright 2003-  QMCPACK developers

                    Please cite:
 J. Kim et al. J. Phys. Cond. Mat. 30 195901 (2018)
      https://doi.org/10.1088/1361-648X/aab9c3

  Git branch: HEAD
  Last git commit: bc47a435682751c26c2695a005684d95f700bebb-dirty
  Last git commit date: Fri Mar 29 14:11:40 2019 -0500
  Last git commit subject: Merge pull request #1520 from QMCPACK/rc_370
=====================================================
  Global options 

  Total number of MPI ranks = 2176
  Number of MPI groups      = 1
  MPI group ID              = 0
  Number of ranks in group  = 2176
  MPI ranks per node        = 68
  OMP 1st level threads     = 4
  OMP nested threading disabled or only 1 thread on the 2nd level

  Precision used in this calculation, see definitions in the manual:
  Base precision      = double
  Full precision      = double

  Structure-of-arrays (SoA) optimization enabled

  Input XML = simple-H2O.xml

  Project = H2O
  date    = 2020-11-30 14:00:33 PST
  host    = nid02592

 Random Number
 -------------
  Offset for the random number seeds based on time: 897

  Range of prime numbers to use as seeds over processors and threads = 6991-100153


 Particle Set 
 ------------
  Name: e
  All the species have the same mass 1
  Particle set size: 8

 Particle Set 
 ------------
  Name: ion0
  All the species have the same mass 1
  Particle set size: 3

 Wavefunction setup: 
 ------------------- 
  Name: psi0
  Created SPOSet builder named 'LCAOBSet' of type molecularorbital
  LCAO: SoaAtomicBasisSet<MultiQuintic,0>

  Distance table for similar particles (A-A):
    source/target: e
    Using structure-of-arrays (SoA) data layout
    Distance computations use open boundary conditions in 3D.


  Distance table for dissimilar particles (A-B):
    source: ion0  target: e
    Using structure-of-arrays (SoA) data layout
    Distance computations use open boundary conditions in 3D.

  AO BasisSet for O
   Angular momentum expanded in cartesian functions x^lx y^ly z^lz according to Gamess
Using log grid with default values: ri = 1e-06 rf = 100 npts = 1001
   R(n,l,m,s) 0 0 0 0
   R(n,l,m,s) 1 0 0 0
   R(n,l,m,s) 2 0 0 0
   R(n,l,m,s) 3 1 0 0
   R(n,l,m,s) 4 1 0 0
   R(n,l,m,s) 5 1 0 0
   R(n,l,m,s) 6 2 0 0
   R(n,l,m,s) 7 2 0 0
   R(n,l,m,s) 8 3 0 0
Expanding Ylm (angular function) according to Gamess using cartesian gaussians
Adding 1 cartesian gaussian orbitals for l= 0
Adding 1 cartesian gaussian orbitals for l= 0
Adding 1 cartesian gaussian orbitals for l= 0
Adding 3 cartesian gaussian orbitals for l= 1
Adding 3 cartesian gaussian orbitals for l= 1
Adding 3 cartesian gaussian orbitals for l= 1
Adding 6 cartesian gaussian orbitals for l= 2
Adding 6 cartesian gaussian orbitals for l= 2
Adding 10 cartesian gaussian orbitals for l= 3
  Setting cutoff radius 10.1859

   Maximum Angular Momentum  = 3
   Number of Radial functors = 9
   Basis size                = 34

  AO BasisSet for H
   Angular momentum expanded in cartesian functions x^lx y^ly z^lz according to Gamess
Using log grid with default values: ri = 1e-06 rf = 100 npts = 1001
   R(n,l,m,s) 0 0 0 0
   R(n,l,m,s) 1 0 0 0
   R(n,l,m,s) 2 0 0 0
   R(n,l,m,s) 3 1 0 0
   R(n,l,m,s) 4 1 0 0
   R(n,l,m,s) 5 2 0 0
Expanding Ylm (angular function) according to Gamess using cartesian gaussians
Adding 1 cartesian gaussian orbitals for l= 0
Adding 1 cartesian gaussian orbitals for l= 0
Adding 1 cartesian gaussian orbitals for l= 0
Adding 3 cartesian gaussian orbitals for l= 1
Adding 3 cartesian gaussian orbitals for l= 1
Adding 6 cartesian gaussian orbitals for l= 2
  Setting cutoff radius 19.4089

   Maximum Angular Momentum  = 2
   Number of Radial functors = 6
   Basis size                = 15

Reuse SPOSetBuilder "LCAOBSet" type MolecularOrbital
  Building SPOSet '' with '' basis set.
Reuse SPOSetBuilder "LCAOBSet" type MolecularOrbital
  Building SPOSet '' with '' basis set.
  Creating a determinant updet group=0 sposet=updet
  Reusing a SPO set updet
Using DiracDeterminant with DelayedUpdate engine
Using rank-1 Sherman-Morrison Fahy update

  Creating a determinant downdet group=1 sposet=downdet
  Reusing a SPO set downdet
Using DiracDeterminant with DelayedUpdate engine
Using rank-1 Sherman-Morrison Fahy update

  FermionWF = SlaterDet
  RadialJastrowBuilder adds a functor with cusp = -0.25
 size = 10 parameters 
 cusp = -0.25
 rcut = 10
Parameter     Name      Value
uu_0 0.029047 1 1  ON 0
uu_1 -0.100418 1 1  ON 1
uu_2 -0.17527 1 1  ON 2
uu_3 -0.223258 1 1  ON 3
uu_4 -0.272803 1 1  ON 4
uu_5 -0.325329 1 1  ON 5
uu_6 -0.362453 1 1  ON 6
uu_7 -0.395822 1 1  ON 7
uu_8 -0.426858 1 1  ON 8
uu_9 -0.439453 1 1  ON 9
  RadialJastrowBuilder adds a functor with cusp = -0.5
 size = 10 parameters 
 cusp = -0.5
 rcut = 10
Parameter     Name      Value
ud_0 0.930669 1 1  ON 0
ud_1 0.628359 1 1  ON 1
ud_2 0.463024 1 1  ON 2
ud_3 0.375585 1 1  ON 3
ud_4 0.333251 1 1  ON 4
ud_5 0.297451 1 1  ON 5
ud_6 0.255069 1 1  ON 6
ud_7 0.197016 1 1  ON 7
ud_8 0.135704 1 1  ON 8
ud_9 0.11181 1 1  ON 9
 size = 10 parameters 
 cusp = 0
 rcut = 10
Parameter     Name      Value
eO_0 -4.0158 1 1  ON 0
eO_1 -3.62877 1 1  ON 1
eO_2 -2.75734 1 1  ON 2
eO_3 -1.83881 1 1  ON 3
eO_4 -1.15124 1 1  ON 4
eO_5 -0.462677 1 1  ON 5
eO_6 -0.212032 1 1  ON 6
eO_7 -0.139318 1 1  ON 7
eO_8 0.513465 1 1  ON 8
eO_9 6.44894 1 1  ON 9
 size = 10 parameters 
 cusp = 0
 rcut = 10
Parameter     Name      Value
eH_0 -0.335752 1 1  ON 0
eH_1 -0.295754 1 1  ON 1
eH_2 -0.27382 1 1  ON 2
eH_3 -0.226322 1 1  ON 3
eH_4 -0.176979 1 1  ON 4
eH_5 -0.176265 1 1  ON 5
eH_6 -0.189957 1 1  ON 6
eH_7 -0.181647 1 1  ON 7
eH_8 -0.038387 1 1  ON 8
eH_9 0.345305 1 1  ON 9
Parameter     Name      Value
uuO_0 8.22771e-06 1 1  ON 0
uuO_1 2.48082e-06 1 1  ON 1
uuO_2 -5.35407e-06 1 1  ON 2
uuO_3 -1.11264e-05 1 1  ON 3
uuO_4 -2.20801e-06 1 1  ON 4
uuO_5 5.21312e-06 1 1  ON 5
uuO_6 -1.53787e-05 1 1  ON 6
uuO_7 8.89903e-06 1 1  ON 7
uuO_8 6.25726e-06 1 1  ON 8
uuO_9 3.21458e-06 1 1  ON 9
uuO_10 -7.71674e-06 1 1  ON 10
uuO_11 -5.27568e-06 1 1  ON 11
uuO_12 -1.77846e-06 1 1  ON 12
uuO_13 7.92623e-06 1 1  ON 13
uuO_14 1.76741e-06 1 1  ON 14
uuO_15 5.45136e-08 1 1  ON 15
uuO_16 2.80142e-06 1 1  ON 16
uuO_17 4.57728e-06 1 1  ON 17
uuO_18 7.63461e-06 1 1  ON 18
uuO_19 -9.51067e-07 1 1  ON 19
uuO_20 -2.34413e-06 1 1  ON 20
uuO_21 -1.87878e-06 1 1  ON 21
uuO_22 3.93736e-07 1 1  ON 22
uuO_23 5.06535e-07 1 1  ON 23
uuO_24 5.08672e-07 1 1  ON 24
uuO_25 -1.35877e-07 1 1  ON 25
Parameter     Name      Value
udO_0 -6.93953e-06 1 1  ON 0
udO_1 2.63417e-05 1 1  ON 1
udO_2 4.04608e-05 1 1  ON 2
udO_3 -8.00268e-06 1 1  ON 3
udO_4 -5.3968e-06 1 1  ON 4
udO_5 6.69737e-06 1 1  ON 5
udO_6 5.43395e-05 1 1  ON 6
udO_7 -6.33685e-06 1 1  ON 7
udO_8 3.68047e-05 1 1  ON 8
udO_9 -2.99606e-05 1 1  ON 9
udO_10 1.99366e-06 1 1  ON 10
udO_11 -3.22271e-05 1 1  ON 11
udO_12 -8.09167e-06 1 1  ON 12
udO_13 4.15739e-06 1 1  ON 13
udO_14 4.84394e-06 1 1  ON 14
udO_15 3.56365e-07 1 1  ON 15
udO_16 3.78633e-05 1 1  ON 16
udO_17 -1.41834e-05 1 1  ON 17
udO_18 2.28269e-05 1 1  ON 18
udO_19 1.29239e-06 1 1  ON 19
udO_20 -4.93581e-06 1 1  ON 20
udO_21 -3.05254e-06 1 1  ON 21
udO_22 9.87029e-08 1 1  ON 22
udO_23 1.84429e-06 1 1  ON 23
udO_24 2.97056e-07 1 1  ON 24
udO_25 -4.3643e-08 1 1  ON 25
Parameter     Name      Value
uuH_0 1.21983e-05 1 1  ON 0
uuH_1 1.70285e-05 1 1  ON 1
uuH_2 -1.60944e-05 1 1  ON 2
uuH_3 -1.21461e-05 1 1  ON 3
uuH_4 5.89794e-08 1 1  ON 4
uuH_5 -7.84971e-07 1 1  ON 5
uuH_6 7.75018e-06 1 1  ON 6
uuH_7 -2.74556e-05 1 1  ON 7
uuH_8 -1.37775e-05 1 1  ON 8
uuH_9 -1.14428e-05 1 1  ON 9
uuH_10 -1.06388e-05 1 1  ON 10
uuH_11 2.73117e-05 1 1  ON 11
uuH_12 8.30376e-07 1 1  ON 12
uuH_13 1.58423e-05 1 1  ON 13
uuH_14 -2.02534e-06 1 1  ON 14
uuH_15 1.23654e-07 1 1  ON 15
uuH_16 1.05822e-05 1 1  ON 16
uuH_17 1.77824e-05 1 1  ON 17
uuH_18 -2.15364e-05 1 1  ON 18
uuH_19 2.19459e-06 1 1  ON 19
uuH_20 -8.9199e-06 1 1  ON 20
uuH_21 3.22949e-06 1 1  ON 21
uuH_22 -5.14014e-07 1 1  ON 22
uuH_23 2.92814e-06 1 1  ON 23
uuH_24 -7.97265e-07 1 1  ON 24
uuH_25 1.41116e-07 1 1  ON 25
Parameter     Name      Value
udH_0 -2.54349e-06 1 1  ON 0
udH_1 -8.33732e-06 1 1  ON 1
udH_2 3.04386e-06 1 1  ON 2
udH_3 -3.54249e-06 1 1  ON 3
udH_4 -2.70133e-06 1 1  ON 4
udH_5 1.45878e-06 1 1  ON 5
udH_6 7.95043e-06 1 1  ON 6
udH_7 -1.87033e-05 1 1  ON 7
udH_8 -2.24168e-06 1 1  ON 8
udH_9 -4.86877e-06 1 1  ON 9
udH_10 -6.17441e-06 1 1  ON 10
udH_11 1.51731e-05 1 1  ON 11
udH_12 -9.52902e-07 1 1  ON 12
udH_13 9.6868e-06 1 1  ON 13
udH_14 -1.64005e-06 1 1  ON 14
udH_15 2.57667e-07 1 1  ON 15
udH_16 1.39257e-05 1 1  ON 16
udH_17 8.67619e-06 1 1  ON 17
udH_18 -1.64788e-05 1 1  ON 18
udH_19 2.49493e-06 1 1  ON 19
udH_20 -7.72623e-06 1 1  ON 20
udH_21 3.43106e-06 1 1  ON 21
udH_22 -6.6016e-07 1 1  ON 22
udH_23 2.3902e-06 1 1  ON 23
udH_24 -9.16932e-07 1 1  ON 24
udH_25 1.90216e-07 1 1  ON 25
  QMCHamiltonian::addOperator Kinetic to H, physical Hamiltonian 
  QMCHamiltonian::addOperator ElecElec to H, physical Hamiltonian 
QMCHamiltonian::addOperatorType added type coulomb named ElecElec

  ECPotential builder for pseudopotential 

  Adding pseudopotential for O
   Linear grid  ri=0 rf=10 npts = 10001
    ECPComponentBuilder::buildSemiLocalAndLocal 
    Assuming Hartree unit
   Number of angular momentum channels 2
   Maximum angular momentum channel 1
   Creating a Linear Grid Rmax=1.31
  Using global grid with delta = 0.001
   Making L=1 a local potential with a radial cutoff of 9.999
    Non-local pseudopotential parameters
    Maximum angular mementum = 0
    Number of non-local channels = 1
       l(0)=0
    Cutoff radius = 1.31
    Spherical grids and weights: 
                        1                 0                 0       0.08333333333
                       -1   1.224646799e-16                 0       0.08333333333
             0.4472135955       0.894427191                 0       0.08333333333
            -0.4472135955      0.7236067977      0.5257311121       0.08333333333
             0.4472135955      0.2763932023      0.8506508084       0.08333333333
            -0.4472135955     -0.2763932023      0.8506508084       0.08333333333
             0.4472135955     -0.7236067977      0.5257311121       0.08333333333
            -0.4472135955      -0.894427191   1.095357397e-16       0.08333333333
             0.4472135955     -0.7236067977     -0.5257311121       0.08333333333
            -0.4472135955     -0.2763932023     -0.8506508084       0.08333333333
             0.4472135955      0.2763932023     -0.8506508084       0.08333333333
            -0.4472135955      0.7236067977     -0.5257311121       0.08333333333
    Maximum cutoff radius 1.31

  Adding pseudopotential for H
   Linear grid  ri=0 rf=10 npts = 10001
    ECPComponentBuilder::buildSemiLocalAndLocal 
    Assuming Hartree unit
    Only one vps is found. Set the local component=0
   Number of angular momentum channels 1
   Maximum angular momentum channel 0
   Creating a Linear Grid Rmax=1.17
  Using global grid with delta = 0.001
   Making L=0 a local potential with a radial cutoff of 9.999
  QMCHamiltonian::addOperator LocalECP to H, physical Hamiltonian 

  Using NonLocalECP potential 
    Maximum grid on a sphere for NonLocalECPotential: 12
  QMCHamiltonian::addOperator NonLocalECP to H, physical Hamiltonian 
QMCHamiltonian::addOperatorType added type pseudo named ELEMENT-ECP

  Distance table for similar particles (A-A):
    source/target: ion0
    Using structure-of-arrays (SoA) data layout
    Distance computations use open boundary conditions in 3D.

  QMCHamiltonian::addOperator IonIon to H, physical Hamiltonian 
QMCHamiltonian::addOperatorType added type coulomb named IonIon

  QMCHamiltonian::add2WalkerProperty added
    5 to P::PropertyList 
    0 to P::Collectables 
    starting Index of the observables in P::PropertyList = 9
<init source="ion0" target="e">
</init>
ParticleSetPool::randomize 
  Initialization Execution time = 1.531 secs
=========================================================
 Summary of QMC systems 
=========================================================
ParticleSetPool has: 

  ParticleSet e : 0 4 8 

    8

    u -4.5083712674e-01 -7.5852603098e-02 -5.6119005924e-01
    u  4.5381910198e-01 -2.3808210013e-01  5.1118211149e-01
    u  4.8339189093e-01  3.9779077468e-01  3.6336867531e-01
    u -2.2393093371e-01 -2.0134177242e+00  7.4128845220e-01
    d -5.5636848178e-01 -4.4376507164e-02  4.6089787690e-01
    d  1.0318114496e-01  5.4787394952e-01 -4.6165983320e-01
    d  4.1311373229e-02  8.4820040498e-03  7.2260877443e-01
    d -1.7151313113e-01  2.1118231517e+00  1.2832750941e+00

  ParticleSet ion0 : 0 1 3 

    3

    O  0.0000000000e+00  0.0000000000e+00  0.0000000000e+00
    H  0.0000000000e+00 -1.4308249289e+00  1.1078707576e+00
    H  0.0000000000e+00  1.4308249289e+00  1.1078707576e+00

  Hamiltonian h0
  Kinetic         Kinetic energy
  ElecElec        CoulombAA source/target e

  LocalECP        LocalECPotential: ion0
  NonLocalECP     NonLocalECPotential: ion0
  IonIon          CoulombAA source/target ion0


=========================================================
  Start VMC
  File Root H2O.s001 append = no 
=========================================================
  Adding 4 walkers to 0 existing sets
  Total number of walkers: 8.7040000000e+03
  Total weight: 8.7040000000e+03
  Resetting Properties of the walkers 1 x 14

<vmc function="put">
  qmc_counter=0  my_counter=0
  time step      = 3.0000000000e-01
  blocks         = 1
  steps          = 64
  substeps       = 5
  current        = 0
  target samples = 5.5705600000e+05
  walkers/mpi    = 4

  stepsbetweensamples = 1
<parameter name="blocks" condition="int">1</parameter>
<parameter name="blocks_between_recompute" condition="int">0</parameter>
<parameter name="check_properties" condition="int">100</parameter>
<parameter name="checkproperties" condition="int">100</parameter>
<parameter name="current" condition="int">0</parameter>
<parameter name="dmcwalkersperthread" condition="real">6.4000000000e+01</parameter>
<parameter name="maxcpusecs" condition="real">3.6000000000e+05</parameter>
<parameter name="record_configs" condition="int">0</parameter>
<parameter name="record_walkers" condition="int">1</parameter>
<parameter name="recordconfigs" condition="int">0</parameter>
<parameter name="recordwalkers" condition="int">1</parameter>
<parameter name="rewind" condition="int">0</parameter>
<parameter name="samples" condition="real">5.5705600000e+05</parameter>
<parameter name="samplesperthread" condition="real">6.4000000000e+01</parameter>
<parameter name="steps" condition="int">64</parameter>
<parameter name="stepsbetweensamples" condition="int">1</parameter>
<parameter name="store_configs" condition="int">0</parameter>
<parameter name="storeconfigs" condition="int">0</parameter>
<parameter name="sub_steps" condition="int">5</parameter>
<parameter name="substeps" condition="int">5</parameter>
<parameter name="tau" condition="au">3.0000000000e-01</parameter>
<parameter name="time_step" condition="au">3.0000000000e-01</parameter>
<parameter name="timestep" condition="au">3.0000000000e-01</parameter>
<parameter name="use_drift" condition="string">no</parameter>
<parameter name="usedrift" condition="string">no</parameter>
<parameter name="walkers" condition="int">4</parameter>
<parameter name="warmup_steps" condition="int">100</parameter>
<parameter name="warmupsteps" condition="int">100</parameter>
  DumpConfig==false Nothing (configurations, state) will be saved.
  Walker Samples are dumped every 1 steps.
</vmc>
  CloneManager::makeClones makes 4 clones for W/Psi/H.
  Cloning methods for both Psi and H are used
===== Memory Usage before cloning =====
Available memory on node 0, free + buffers : 90806 MB
Memory footprint by rank 0 on node 0       : 57 MB
==================================================
===== Memory Usage after cloning =====
Available memory on node 0, free + buffers : 90685 MB
Memory footprint by rank 0 on node 0       : 59 MB
==================================================
  Initial partition of walkers 0 1 2 3 4 

  Using Particle by Particle moves
  Walker moves without drift
  Total Sample Size   =557056
  Walker distribution on root = 0 1 2 3 4 
  Using Locality Approximation
===== Memory Usage after the buffer registration =====
Available memory on node 0, free + buffers : 89273 MB
Memory footprint by rank 0 on node 0       : 78 MB
==================================================
  Anonymous Buffer size per walker : 2912 Bytes.
MEMORY increase 0 MB VMC::resetRun
====================================================
  SimpleFixedNodeBranch::finalize after a VMC block
    QMC counter        = 0
    time step          = 0.3
    reference energy   = -17.2379
    reference variance = 0.22115
====================================================
  QMC Execution time = 2.0466e+00 secs

=========================================================
  Start DMC
  File Root H2O.s002 append = no 
=========================================================
Using existing walkers 
  Resetting Properties of the walkers 1 x 14
  EstimatorManagerBase::add replace LocalEnergy estimator.
  Cannot make clones again. Use existing 4 clones
  Total number of walkers: 5.5706e+05
  Total weight: 5.5706e+05
  Creating WalkerController: target  number of walkers = 557056
  Using WalkerControlMPI for dynamic population control.
  START ALL OVER 
  WalkerControlBase parameters 
    maxCopy = 2
    Max Walkers per MPI rank 513
    Min Walkers per MPI rank 52
    Using non-blocking send/recv
  QMC counter      = 1
  time step        = 5.0000e-03
  effective time step = 5.0000e-03
  trial energy     = -1.7238e+01
  reference energy = -1.7238e+01
  Feedback = 1.0000e+00
  reference variance = 2.2115e-01
  target walkers = 557056
  branching cutoff scheme classic
  branch cutoff = 5.0000e+01 7.5000e+01
  Max and minimum walkers per node= 513 52
  QMC Status (BranchMode) = 0000001101
  Initial partition of walkers on a node: 0 64 128 192 256 
  Updates by particle-by-particle moves
  DMC moves are rejected when a node crossing is detected
  Using Non-local T-moves v0, M. Casula, PRB 74, 161102(R) (2006)
===== Memory Usage after the buffer registration =====
Available memory on node 0, free + buffers : 89225 MB
Memory footprint by rank 0 on node 0       : 81 MB
==================================================
SimpleFixedNodeBranch::checkParameters 
  Average Energy of a population  = -17.2463
  Energy Variance = 0.232104

  Fluctuating population
  Persistent walkers are killed after 1 MC sweeps
  BranchInterval = 1
  Steps per block = 3
  Number of blocks = 100

  DMC Engine Initialization = 1.6955e-01 secs

 Warmup is completed after 100

  TauEff     = 4.9776e-03
 TauEff/Tau = 9.9552e-01
  Etrial     = -1.7240e+01
 Running average of energy = -1.7257e+01
                  Variance = 2.4218e-01
branch cutoff = 1.0000e+01 1.5000e+01
====================================================
  SimpleFixedNodeBranch::finalize after a DMC block
    QMC counter                   = 1
    time step                     = 0.005
    effective time step           = 0.00497757
    trial energy                  = -17.2607
    reference energy              = -17.2609
    reference variance            = 0.242178
    target walkers                = 557056
    branch cutoff                 = 10 15
    Max and minimum walkers per node= 513 52
    Feedback                      = 1
    QMC Status (BranchMode)       = 0000001111
====================================================
  QMC Execution time = 6.8880e+01 secs
  Total Execution time = 7.0958e+01 secs

=========================================================
  A new xml input file : H2O.s002.cont.xml
endTime:Mon Nov 30 14:01:47 PST 2020


Starting job in lowerRouterStall policy..
startTime:Mon Nov 30 14:01:47 PST 2020

Input file(s): simple-H2O.xml 

=====================================================
                    QMCPACK 3.7.0

       (c) Copyright 2003-  QMCPACK developers

                    Please cite:
 J. Kim et al. J. Phys. Cond. Mat. 30 195901 (2018)
      https://doi.org/10.1088/1361-648X/aab9c3

  Git branch: HEAD
  Last git commit: bc47a435682751c26c2695a005684d95f700bebb-dirty
  Last git commit date: Fri Mar 29 14:11:40 2019 -0500
  Last git commit subject: Merge pull request #1520 from QMCPACK/rc_370
=====================================================
  Global options 

  Total number of MPI ranks = 2176
  Number of MPI groups      = 1
  MPI group ID              = 0
  Number of ranks in group  = 2176
  MPI ranks per node        = 68
  OMP 1st level threads     = 4
  OMP nested threading disabled or only 1 thread on the 2nd level

  Precision used in this calculation, see definitions in the manual:
  Base precision      = double
  Full precision      = double

  Structure-of-arrays (SoA) optimization enabled

  Input XML = simple-H2O.xml

  Project = H2O
  date    = 2020-11-30 14:01:59 PST
  host    = nid03260

 Random Number
 -------------
  Offset for the random number seeds based on time: 983

  Range of prime numbers to use as seeds over processors and threads = 7759-101161


 Particle Set 
 ------------
  Name: e
  All the species have the same mass 1
  Particle set size: 8

 Particle Set 
 ------------
  Name: ion0
  All the species have the same mass 1
  Particle set size: 3

 Wavefunction setup: 
 ------------------- 
  Name: psi0
  Created SPOSet builder named 'LCAOBSet' of type molecularorbital
  LCAO: SoaAtomicBasisSet<MultiQuintic,0>

  Distance table for similar particles (A-A):
    source/target: e
    Using structure-of-arrays (SoA) data layout
    Distance computations use open boundary conditions in 3D.


  Distance table for dissimilar particles (A-B):
    source: ion0  target: e
    Using structure-of-arrays (SoA) data layout
    Distance computations use open boundary conditions in 3D.

  AO BasisSet for O
   Angular momentum expanded in cartesian functions x^lx y^ly z^lz according to Gamess
Using log grid with default values: ri = 1e-06 rf = 100 npts = 1001
   R(n,l,m,s) 0 0 0 0
   R(n,l,m,s) 1 0 0 0
   R(n,l,m,s) 2 0 0 0
   R(n,l,m,s) 3 1 0 0
   R(n,l,m,s) 4 1 0 0
   R(n,l,m,s) 5 1 0 0
   R(n,l,m,s) 6 2 0 0
   R(n,l,m,s) 7 2 0 0
   R(n,l,m,s) 8 3 0 0
Expanding Ylm (angular function) according to Gamess using cartesian gaussians
Adding 1 cartesian gaussian orbitals for l= 0
Adding 1 cartesian gaussian orbitals for l= 0
Adding 1 cartesian gaussian orbitals for l= 0
Adding 3 cartesian gaussian orbitals for l= 1
Adding 3 cartesian gaussian orbitals for l= 1
Adding 3 cartesian gaussian orbitals for l= 1
Adding 6 cartesian gaussian orbitals for l= 2
Adding 6 cartesian gaussian orbitals for l= 2
Adding 10 cartesian gaussian orbitals for l= 3
  Setting cutoff radius 10.1859

   Maximum Angular Momentum  = 3
   Number of Radial functors = 9
   Basis size                = 34

  AO BasisSet for H
   Angular momentum expanded in cartesian functions x^lx y^ly z^lz according to Gamess
Using log grid with default values: ri = 1e-06 rf = 100 npts = 1001
   R(n,l,m,s) 0 0 0 0
   R(n,l,m,s) 1 0 0 0
   R(n,l,m,s) 2 0 0 0
   R(n,l,m,s) 3 1 0 0
   R(n,l,m,s) 4 1 0 0
   R(n,l,m,s) 5 2 0 0
Expanding Ylm (angular function) according to Gamess using cartesian gaussians
Adding 1 cartesian gaussian orbitals for l= 0
Adding 1 cartesian gaussian orbitals for l= 0
Adding 1 cartesian gaussian orbitals for l= 0
Adding 3 cartesian gaussian orbitals for l= 1
Adding 3 cartesian gaussian orbitals for l= 1
Adding 6 cartesian gaussian orbitals for l= 2
  Setting cutoff radius 19.4089

   Maximum Angular Momentum  = 2
   Number of Radial functors = 6
   Basis size                = 15

Reuse SPOSetBuilder "LCAOBSet" type MolecularOrbital
  Building SPOSet '' with '' basis set.
Reuse SPOSetBuilder "LCAOBSet" type MolecularOrbital
  Building SPOSet '' with '' basis set.
  Creating a determinant updet group=0 sposet=updet
  Reusing a SPO set updet
Using DiracDeterminant with DelayedUpdate engine
Using rank-1 Sherman-Morrison Fahy update

  Creating a determinant downdet group=1 sposet=downdet
  Reusing a SPO set downdet
Using DiracDeterminant with DelayedUpdate engine
Using rank-1 Sherman-Morrison Fahy update

  FermionWF = SlaterDet
  RadialJastrowBuilder adds a functor with cusp = -0.25
 size = 10 parameters 
 cusp = -0.25
 rcut = 10
Parameter     Name      Value
uu_0 0.029047 1 1  ON 0
uu_1 -0.100418 1 1  ON 1
uu_2 -0.17527 1 1  ON 2
uu_3 -0.223258 1 1  ON 3
uu_4 -0.272803 1 1  ON 4
uu_5 -0.325329 1 1  ON 5
uu_6 -0.362453 1 1  ON 6
uu_7 -0.395822 1 1  ON 7
uu_8 -0.426858 1 1  ON 8
uu_9 -0.439453 1 1  ON 9
  RadialJastrowBuilder adds a functor with cusp = -0.5
 size = 10 parameters 
 cusp = -0.5
 rcut = 10
Parameter     Name      Value
ud_0 0.930669 1 1  ON 0
ud_1 0.628359 1 1  ON 1
ud_2 0.463024 1 1  ON 2
ud_3 0.375585 1 1  ON 3
ud_4 0.333251 1 1  ON 4
ud_5 0.297451 1 1  ON 5
ud_6 0.255069 1 1  ON 6
ud_7 0.197016 1 1  ON 7
ud_8 0.135704 1 1  ON 8
ud_9 0.11181 1 1  ON 9
 size = 10 parameters 
 cusp = 0
 rcut = 10
Parameter     Name      Value
eO_0 -4.0158 1 1  ON 0
eO_1 -3.62877 1 1  ON 1
eO_2 -2.75734 1 1  ON 2
eO_3 -1.83881 1 1  ON 3
eO_4 -1.15124 1 1  ON 4
eO_5 -0.462677 1 1  ON 5
eO_6 -0.212032 1 1  ON 6
eO_7 -0.139318 1 1  ON 7
eO_8 0.513465 1 1  ON 8
eO_9 6.44894 1 1  ON 9
 size = 10 parameters 
 cusp = 0
 rcut = 10
Parameter     Name      Value
eH_0 -0.335752 1 1  ON 0
eH_1 -0.295754 1 1  ON 1
eH_2 -0.27382 1 1  ON 2
eH_3 -0.226322 1 1  ON 3
eH_4 -0.176979 1 1  ON 4
eH_5 -0.176265 1 1  ON 5
eH_6 -0.189957 1 1  ON 6
eH_7 -0.181647 1 1  ON 7
eH_8 -0.038387 1 1  ON 8
eH_9 0.345305 1 1  ON 9
Parameter     Name      Value
uuO_0 8.22771e-06 1 1  ON 0
uuO_1 2.48082e-06 1 1  ON 1
uuO_2 -5.35407e-06 1 1  ON 2
uuO_3 -1.11264e-05 1 1  ON 3
uuO_4 -2.20801e-06 1 1  ON 4
uuO_5 5.21312e-06 1 1  ON 5
uuO_6 -1.53787e-05 1 1  ON 6
uuO_7 8.89903e-06 1 1  ON 7
uuO_8 6.25726e-06 1 1  ON 8
uuO_9 3.21458e-06 1 1  ON 9
uuO_10 -7.71674e-06 1 1  ON 10
uuO_11 -5.27568e-06 1 1  ON 11
uuO_12 -1.77846e-06 1 1  ON 12
uuO_13 7.92623e-06 1 1  ON 13
uuO_14 1.76741e-06 1 1  ON 14
uuO_15 5.45136e-08 1 1  ON 15
uuO_16 2.80142e-06 1 1  ON 16
uuO_17 4.57728e-06 1 1  ON 17
uuO_18 7.63461e-06 1 1  ON 18
uuO_19 -9.51067e-07 1 1  ON 19
uuO_20 -2.34413e-06 1 1  ON 20
uuO_21 -1.87878e-06 1 1  ON 21
uuO_22 3.93736e-07 1 1  ON 22
uuO_23 5.06535e-07 1 1  ON 23
uuO_24 5.08672e-07 1 1  ON 24
uuO_25 -1.35877e-07 1 1  ON 25
Parameter     Name      Value
udO_0 -6.93953e-06 1 1  ON 0
udO_1 2.63417e-05 1 1  ON 1
udO_2 4.04608e-05 1 1  ON 2
udO_3 -8.00268e-06 1 1  ON 3
udO_4 -5.3968e-06 1 1  ON 4
udO_5 6.69737e-06 1 1  ON 5
udO_6 5.43395e-05 1 1  ON 6
udO_7 -6.33685e-06 1 1  ON 7
udO_8 3.68047e-05 1 1  ON 8
udO_9 -2.99606e-05 1 1  ON 9
udO_10 1.99366e-06 1 1  ON 10
udO_11 -3.22271e-05 1 1  ON 11
udO_12 -8.09167e-06 1 1  ON 12
udO_13 4.15739e-06 1 1  ON 13
udO_14 4.84394e-06 1 1  ON 14
udO_15 3.56365e-07 1 1  ON 15
udO_16 3.78633e-05 1 1  ON 16
udO_17 -1.41834e-05 1 1  ON 17
udO_18 2.28269e-05 1 1  ON 18
udO_19 1.29239e-06 1 1  ON 19
udO_20 -4.93581e-06 1 1  ON 20
udO_21 -3.05254e-06 1 1  ON 21
udO_22 9.87029e-08 1 1  ON 22
udO_23 1.84429e-06 1 1  ON 23
udO_24 2.97056e-07 1 1  ON 24
udO_25 -4.3643e-08 1 1  ON 25
Parameter     Name      Value
uuH_0 1.21983e-05 1 1  ON 0
uuH_1 1.70285e-05 1 1  ON 1
uuH_2 -1.60944e-05 1 1  ON 2
uuH_3 -1.21461e-05 1 1  ON 3
uuH_4 5.89794e-08 1 1  ON 4
uuH_5 -7.84971e-07 1 1  ON 5
uuH_6 7.75018e-06 1 1  ON 6
uuH_7 -2.74556e-05 1 1  ON 7
uuH_8 -1.37775e-05 1 1  ON 8
uuH_9 -1.14428e-05 1 1  ON 9
uuH_10 -1.06388e-05 1 1  ON 10
uuH_11 2.73117e-05 1 1  ON 11
uuH_12 8.30376e-07 1 1  ON 12
uuH_13 1.58423e-05 1 1  ON 13
uuH_14 -2.02534e-06 1 1  ON 14
uuH_15 1.23654e-07 1 1  ON 15
uuH_16 1.05822e-05 1 1  ON 16
uuH_17 1.77824e-05 1 1  ON 17
uuH_18 -2.15364e-05 1 1  ON 18
uuH_19 2.19459e-06 1 1  ON 19
uuH_20 -8.9199e-06 1 1  ON 20
uuH_21 3.22949e-06 1 1  ON 21
uuH_22 -5.14014e-07 1 1  ON 22
uuH_23 2.92814e-06 1 1  ON 23
uuH_24 -7.97265e-07 1 1  ON 24
uuH_25 1.41116e-07 1 1  ON 25
Parameter     Name      Value
udH_0 -2.54349e-06 1 1  ON 0
udH_1 -8.33732e-06 1 1  ON 1
udH_2 3.04386e-06 1 1  ON 2
udH_3 -3.54249e-06 1 1  ON 3
udH_4 -2.70133e-06 1 1  ON 4
udH_5 1.45878e-06 1 1  ON 5
udH_6 7.95043e-06 1 1  ON 6
udH_7 -1.87033e-05 1 1  ON 7
udH_8 -2.24168e-06 1 1  ON 8
udH_9 -4.86877e-06 1 1  ON 9
udH_10 -6.17441e-06 1 1  ON 10
udH_11 1.51731e-05 1 1  ON 11
udH_12 -9.52902e-07 1 1  ON 12
udH_13 9.6868e-06 1 1  ON 13
udH_14 -1.64005e-06 1 1  ON 14
udH_15 2.57667e-07 1 1  ON 15
udH_16 1.39257e-05 1 1  ON 16
udH_17 8.67619e-06 1 1  ON 17
udH_18 -1.64788e-05 1 1  ON 18
udH_19 2.49493e-06 1 1  ON 19
udH_20 -7.72623e-06 1 1  ON 20
udH_21 3.43106e-06 1 1  ON 21
udH_22 -6.6016e-07 1 1  ON 22
udH_23 2.3902e-06 1 1  ON 23
udH_24 -9.16932e-07 1 1  ON 24
udH_25 1.90216e-07 1 1  ON 25
  QMCHamiltonian::addOperator Kinetic to H, physical Hamiltonian 
  QMCHamiltonian::addOperator ElecElec to H, physical Hamiltonian 
QMCHamiltonian::addOperatorType added type coulomb named ElecElec

  ECPotential builder for pseudopotential 

  Adding pseudopotential for O
   Linear grid  ri=0 rf=10 npts = 10001
    ECPComponentBuilder::buildSemiLocalAndLocal 
    Assuming Hartree unit
   Number of angular momentum channels 2
   Maximum angular momentum channel 1
   Creating a Linear Grid Rmax=1.31
  Using global grid with delta = 0.001
   Making L=1 a local potential with a radial cutoff of 9.999
    Non-local pseudopotential parameters
    Maximum angular mementum = 0
    Number of non-local channels = 1
       l(0)=0
    Cutoff radius = 1.31
    Spherical grids and weights: 
                        1                 0                 0       0.08333333333
                       -1   1.224646799e-16                 0       0.08333333333
             0.4472135955       0.894427191                 0       0.08333333333
            -0.4472135955      0.7236067977      0.5257311121       0.08333333333
             0.4472135955      0.2763932023      0.8506508084       0.08333333333
            -0.4472135955     -0.2763932023      0.8506508084       0.08333333333
             0.4472135955     -0.7236067977      0.5257311121       0.08333333333
            -0.4472135955      -0.894427191   1.095357397e-16       0.08333333333
             0.4472135955     -0.7236067977     -0.5257311121       0.08333333333
            -0.4472135955     -0.2763932023     -0.8506508084       0.08333333333
             0.4472135955      0.2763932023     -0.8506508084       0.08333333333
            -0.4472135955      0.7236067977     -0.5257311121       0.08333333333
    Maximum cutoff radius 1.31

  Adding pseudopotential for H
   Linear grid  ri=0 rf=10 npts = 10001
    ECPComponentBuilder::buildSemiLocalAndLocal 
    Assuming Hartree unit
    Only one vps is found. Set the local component=0
   Number of angular momentum channels 1
   Maximum angular momentum channel 0
   Creating a Linear Grid Rmax=1.17
  Using global grid with delta = 0.001
   Making L=0 a local potential with a radial cutoff of 9.999
  QMCHamiltonian::addOperator LocalECP to H, physical Hamiltonian 

  Using NonLocalECP potential 
    Maximum grid on a sphere for NonLocalECPotential: 12
  QMCHamiltonian::addOperator NonLocalECP to H, physical Hamiltonian 
QMCHamiltonian::addOperatorType added type pseudo named ELEMENT-ECP

  Distance table for similar particles (A-A):
    source/target: ion0
    Using structure-of-arrays (SoA) data layout
    Distance computations use open boundary conditions in 3D.

  QMCHamiltonian::addOperator IonIon to H, physical Hamiltonian 
QMCHamiltonian::addOperatorType added type coulomb named IonIon

  QMCHamiltonian::add2WalkerProperty added
    5 to P::PropertyList 
    0 to P::Collectables 
    starting Index of the observables in P::PropertyList = 9
<init source="ion0" target="e">
</init>
ParticleSetPool::randomize 
  Initialization Execution time = 1.1 secs
=========================================================
 Summary of QMC systems 
=========================================================
ParticleSetPool has: 

  ParticleSet e : 0 4 8 

    8

    u -1.0763422369e-01 -1.9351922967e-01 -6.8913510756e-01
    u  3.7620679233e-01  3.8433829647e-01  4.8445282340e-01
    u -5.5985066030e-01 -4.2871000726e-01  1.6345330426e-01
    u  5.6270552019e-03 -1.3103778780e+00  3.9414611951e-01
    d  5.6271264201e-01 -1.3602709692e-01 -4.3450330983e-01
    d  2.3675830788e-01 -2.0304837746e-01 -6.5319130038e-01
    d -4.6994911586e-01 -1.0185977540e-01  5.4103089513e-01
    d  4.9128068396e-01  1.4605415659e+00  5.7711448031e-01

  ParticleSet ion0 : 0 1 3 

    3

    O  0.0000000000e+00  0.0000000000e+00  0.0000000000e+00
    H  0.0000000000e+00 -1.4308249289e+00  1.1078707576e+00
    H  0.0000000000e+00  1.4308249289e+00  1.1078707576e+00

  Hamiltonian h0
  Kinetic         Kinetic energy
  ElecElec        CoulombAA source/target e

  LocalECP        LocalECPotential: ion0
  NonLocalECP     NonLocalECPotential: ion0
  IonIon          CoulombAA source/target ion0


=========================================================
  Start VMC
  File Root H2O.s001 append = no 
=========================================================
  Adding 4 walkers to 0 existing sets
  Total number of walkers: 8.7040000000e+03
  Total weight: 8.7040000000e+03
  Resetting Properties of the walkers 1 x 14

<vmc function="put">
  qmc_counter=0  my_counter=0
  time step      = 3.0000000000e-01
  blocks         = 1
  steps          = 64
  substeps       = 5
  current        = 0
  target samples = 5.5705600000e+05
  walkers/mpi    = 4

  stepsbetweensamples = 1
<parameter name="blocks" condition="int">1</parameter>
<parameter name="blocks_between_recompute" condition="int">0</parameter>
<parameter name="check_properties" condition="int">100</parameter>
<parameter name="checkproperties" condition="int">100</parameter>
<parameter name="current" condition="int">0</parameter>
<parameter name="dmcwalkersperthread" condition="real">6.4000000000e+01</parameter>
<parameter name="maxcpusecs" condition="real">3.6000000000e+05</parameter>
<parameter name="record_configs" condition="int">0</parameter>
<parameter name="record_walkers" condition="int">1</parameter>
<parameter name="recordconfigs" condition="int">0</parameter>
<parameter name="recordwalkers" condition="int">1</parameter>
<parameter name="rewind" condition="int">0</parameter>
<parameter name="samples" condition="real">5.5705600000e+05</parameter>
<parameter name="samplesperthread" condition="real">6.4000000000e+01</parameter>
<parameter name="steps" condition="int">64</parameter>
<parameter name="stepsbetweensamples" condition="int">1</parameter>
<parameter name="store_configs" condition="int">0</parameter>
<parameter name="storeconfigs" condition="int">0</parameter>
<parameter name="sub_steps" condition="int">5</parameter>
<parameter name="substeps" condition="int">5</parameter>
<parameter name="tau" condition="au">3.0000000000e-01</parameter>
<parameter name="time_step" condition="au">3.0000000000e-01</parameter>
<parameter name="timestep" condition="au">3.0000000000e-01</parameter>
<parameter name="use_drift" condition="string">no</parameter>
<parameter name="usedrift" condition="string">no</parameter>
<parameter name="walkers" condition="int">4</parameter>
<parameter name="warmup_steps" condition="int">100</parameter>
<parameter name="warmupsteps" condition="int">100</parameter>
  DumpConfig==false Nothing (configurations, state) will be saved.
  Walker Samples are dumped every 1 steps.
</vmc>
  CloneManager::makeClones makes 4 clones for W/Psi/H.
  Cloning methods for both Psi and H are used
===== Memory Usage before cloning =====
Available memory on node 0, free + buffers : 90777 MB
Memory footprint by rank 0 on node 0       : 57 MB
==================================================
===== Memory Usage after cloning =====
Available memory on node 0, free + buffers : 90627 MB
Memory footprint by rank 0 on node 0       : 60 MB
==================================================
  Initial partition of walkers 0 1 2 3 4 

  Using Particle by Particle moves
  Walker moves without drift
  Total Sample Size   =557056
  Walker distribution on root = 0 1 2 3 4 
  Using Locality Approximation
===== Memory Usage after the buffer registration =====
Available memory on node 0, free + buffers : 89252 MB
Memory footprint by rank 0 on node 0       : 79 MB
==================================================
  Anonymous Buffer size per walker : 2912 Bytes.
MEMORY increase 0 MB VMC::resetRun
====================================================
  SimpleFixedNodeBranch::finalize after a VMC block
    QMC counter        = 0
    time step          = 0.3
    reference energy   = -17.2443
    reference variance = 0.232598
====================================================
  QMC Execution time = 2.1284e+00 secs

=========================================================
  Start DMC
  File Root H2O.s002 append = no 
=========================================================
Using existing walkers 
  Resetting Properties of the walkers 1 x 14
  EstimatorManagerBase::add replace LocalEnergy estimator.
  Cannot make clones again. Use existing 4 clones
  Total number of walkers: 5.5706e+05
  Total weight: 5.5706e+05
  Creating WalkerController: target  number of walkers = 557056
  Using WalkerControlMPI for dynamic population control.
  START ALL OVER 
  WalkerControlBase parameters 
    maxCopy = 2
    Max Walkers per MPI rank 513
    Min Walkers per MPI rank 52
    Using non-blocking send/recv
  QMC counter      = 1
  time step        = 5.0000e-03
  effective time step = 5.0000e-03
  trial energy     = -1.7244e+01
  reference energy = -1.7244e+01
  Feedback = 1.0000e+00
  reference variance = 2.3260e-01
  target walkers = 557056
  branching cutoff scheme classic
  branch cutoff = 5.0000e+01 7.5000e+01
  Max and minimum walkers per node= 513 52
  QMC Status (BranchMode) = 0000001101
  Initial partition of walkers on a node: 0 64 128 192 256 
  Updates by particle-by-particle moves
  DMC moves are rejected when a node crossing is detected
  Using Non-local T-moves v0, M. Casula, PRB 74, 161102(R) (2006)
===== Memory Usage after the buffer registration =====
Available memory on node 0, free + buffers : 89205 MB
Memory footprint by rank 0 on node 0       : 82 MB
==================================================
SimpleFixedNodeBranch::checkParameters 
  Average Energy of a population  = -17.2481
  Energy Variance = 0.238781

  Fluctuating population
  Persistent walkers are killed after 1 MC sweeps
  BranchInterval = 1
  Steps per block = 3
  Number of blocks = 100

  DMC Engine Initialization = 1.7498e-01 secs

 Warmup is completed after 100

  TauEff     = 4.9776e-03
 TauEff/Tau = 9.9553e-01
  Etrial     = -1.7265e+01
 Running average of energy = -1.7257e+01
                  Variance = 2.4285e-01
branch cutoff = 1.0000e+01 1.5000e+01
====================================================
  SimpleFixedNodeBranch::finalize after a DMC block
    QMC counter                   = 1
    time step                     = 0.005
    effective time step           = 0.0049776
    trial energy                  = -17.2608
    reference energy              = -17.2609
    reference variance            = 0.242847
    target walkers                = 557056
    branch cutoff                 = 10 15
    Max and minimum walkers per node= 513 52
    Feedback                      = 1
    QMC Status (BranchMode)       = 0000001111
====================================================
  QMC Execution time = 6.8476e+01 secs
  Total Execution time = 7.0629e+01 secs

=========================================================
  A new xml input file : H2O.s002.cont.xml
endTime:Mon Nov 30 14:03:12 PST 2020


Starting job in fewerSwitch policy..
startTime:Mon Nov 30 14:03:13 PST 2020

Input file(s): simple-H2O.xml 

=====================================================
                    QMCPACK 3.7.0

       (c) Copyright 2003-  QMCPACK developers

                    Please cite:
 J. Kim et al. J. Phys. Cond. Mat. 30 195901 (2018)
      https://doi.org/10.1088/1361-648X/aab9c3

  Git branch: HEAD
  Last git commit: bc47a435682751c26c2695a005684d95f700bebb-dirty
  Last git commit date: Fri Mar 29 14:11:40 2019 -0500
  Last git commit subject: Merge pull request #1520 from QMCPACK/rc_370
=====================================================
  Global options 

  Total number of MPI ranks = 2176
  Number of MPI groups      = 1
  MPI group ID              = 0
  Number of ranks in group  = 2176
  MPI ranks per node        = 68
  OMP 1st level threads     = 4
  OMP nested threading disabled or only 1 thread on the 2nd level

  Precision used in this calculation, see definitions in the manual:
  Base precision      = double
  Full precision      = double

  Structure-of-arrays (SoA) optimization enabled

  Input XML = simple-H2O.xml

  Project = H2O
  date    = 2020-11-30 14:03:24 PST
  host    = nid03260

 Random Number
 -------------
  Offset for the random number seeds based on time: 44

  Range of prime numbers to use as seeds over processors and threads = 199-90373


 Particle Set 
 ------------
  Name: e
  All the species have the same mass 1
  Particle set size: 8

 Particle Set 
 ------------
  Name: ion0
  All the species have the same mass 1
  Particle set size: 3

 Wavefunction setup: 
 ------------------- 
  Name: psi0
  Created SPOSet builder named 'LCAOBSet' of type molecularorbital
  LCAO: SoaAtomicBasisSet<MultiQuintic,0>

  Distance table for similar particles (A-A):
    source/target: e
    Using structure-of-arrays (SoA) data layout
    Distance computations use open boundary conditions in 3D.


  Distance table for dissimilar particles (A-B):
    source: ion0  target: e
    Using structure-of-arrays (SoA) data layout
    Distance computations use open boundary conditions in 3D.

  AO BasisSet for O
   Angular momentum expanded in cartesian functions x^lx y^ly z^lz according to Gamess
Using log grid with default values: ri = 1e-06 rf = 100 npts = 1001
   R(n,l,m,s) 0 0 0 0
   R(n,l,m,s) 1 0 0 0
   R(n,l,m,s) 2 0 0 0
   R(n,l,m,s) 3 1 0 0
   R(n,l,m,s) 4 1 0 0
   R(n,l,m,s) 5 1 0 0
   R(n,l,m,s) 6 2 0 0
   R(n,l,m,s) 7 2 0 0
   R(n,l,m,s) 8 3 0 0
Expanding Ylm (angular function) according to Gamess using cartesian gaussians
Adding 1 cartesian gaussian orbitals for l= 0
Adding 1 cartesian gaussian orbitals for l= 0
Adding 1 cartesian gaussian orbitals for l= 0
Adding 3 cartesian gaussian orbitals for l= 1
Adding 3 cartesian gaussian orbitals for l= 1
Adding 3 cartesian gaussian orbitals for l= 1
Adding 6 cartesian gaussian orbitals for l= 2
Adding 6 cartesian gaussian orbitals for l= 2
Adding 10 cartesian gaussian orbitals for l= 3
  Setting cutoff radius 10.1859

   Maximum Angular Momentum  = 3
   Number of Radial functors = 9
   Basis size                = 34

  AO BasisSet for H
   Angular momentum expanded in cartesian functions x^lx y^ly z^lz according to Gamess
Using log grid with default values: ri = 1e-06 rf = 100 npts = 1001
   R(n,l,m,s) 0 0 0 0
   R(n,l,m,s) 1 0 0 0
   R(n,l,m,s) 2 0 0 0
   R(n,l,m,s) 3 1 0 0
   R(n,l,m,s) 4 1 0 0
   R(n,l,m,s) 5 2 0 0
Expanding Ylm (angular function) according to Gamess using cartesian gaussians
Adding 1 cartesian gaussian orbitals for l= 0
Adding 1 cartesian gaussian orbitals for l= 0
Adding 1 cartesian gaussian orbitals for l= 0
Adding 3 cartesian gaussian orbitals for l= 1
Adding 3 cartesian gaussian orbitals for l= 1
Adding 6 cartesian gaussian orbitals for l= 2
  Setting cutoff radius 19.4089

   Maximum Angular Momentum  = 2
   Number of Radial functors = 6
   Basis size                = 15

Reuse SPOSetBuilder "LCAOBSet" type MolecularOrbital
  Building SPOSet '' with '' basis set.
Reuse SPOSetBuilder "LCAOBSet" type MolecularOrbital
  Building SPOSet '' with '' basis set.
  Creating a determinant updet group=0 sposet=updet
  Reusing a SPO set updet
Using DiracDeterminant with DelayedUpdate engine
Using rank-1 Sherman-Morrison Fahy update

  Creating a determinant downdet group=1 sposet=downdet
  Reusing a SPO set downdet
Using DiracDeterminant with DelayedUpdate engine
Using rank-1 Sherman-Morrison Fahy update

  FermionWF = SlaterDet
  RadialJastrowBuilder adds a functor with cusp = -0.25
 size = 10 parameters 
 cusp = -0.25
 rcut = 10
Parameter     Name      Value
uu_0 0.029047 1 1  ON 0
uu_1 -0.100418 1 1  ON 1
uu_2 -0.17527 1 1  ON 2
uu_3 -0.223258 1 1  ON 3
uu_4 -0.272803 1 1  ON 4
uu_5 -0.325329 1 1  ON 5
uu_6 -0.362453 1 1  ON 6
uu_7 -0.395822 1 1  ON 7
uu_8 -0.426858 1 1  ON 8
uu_9 -0.439453 1 1  ON 9
  RadialJastrowBuilder adds a functor with cusp = -0.5
 size = 10 parameters 
 cusp = -0.5
 rcut = 10
Parameter     Name      Value
ud_0 0.930669 1 1  ON 0
ud_1 0.628359 1 1  ON 1
ud_2 0.463024 1 1  ON 2
ud_3 0.375585 1 1  ON 3
ud_4 0.333251 1 1  ON 4
ud_5 0.297451 1 1  ON 5
ud_6 0.255069 1 1  ON 6
ud_7 0.197016 1 1  ON 7
ud_8 0.135704 1 1  ON 8
ud_9 0.11181 1 1  ON 9
 size = 10 parameters 
 cusp = 0
 rcut = 10
Parameter     Name      Value
eO_0 -4.0158 1 1  ON 0
eO_1 -3.62877 1 1  ON 1
eO_2 -2.75734 1 1  ON 2
eO_3 -1.83881 1 1  ON 3
eO_4 -1.15124 1 1  ON 4
eO_5 -0.462677 1 1  ON 5
eO_6 -0.212032 1 1  ON 6
eO_7 -0.139318 1 1  ON 7
eO_8 0.513465 1 1  ON 8
eO_9 6.44894 1 1  ON 9
 size = 10 parameters 
 cusp = 0
 rcut = 10
Parameter     Name      Value
eH_0 -0.335752 1 1  ON 0
eH_1 -0.295754 1 1  ON 1
eH_2 -0.27382 1 1  ON 2
eH_3 -0.226322 1 1  ON 3
eH_4 -0.176979 1 1  ON 4
eH_5 -0.176265 1 1  ON 5
eH_6 -0.189957 1 1  ON 6
eH_7 -0.181647 1 1  ON 7
eH_8 -0.038387 1 1  ON 8
eH_9 0.345305 1 1  ON 9
Parameter     Name      Value
uuO_0 8.22771e-06 1 1  ON 0
uuO_1 2.48082e-06 1 1  ON 1
uuO_2 -5.35407e-06 1 1  ON 2
uuO_3 -1.11264e-05 1 1  ON 3
uuO_4 -2.20801e-06 1 1  ON 4
uuO_5 5.21312e-06 1 1  ON 5
uuO_6 -1.53787e-05 1 1  ON 6
uuO_7 8.89903e-06 1 1  ON 7
uuO_8 6.25726e-06 1 1  ON 8
uuO_9 3.21458e-06 1 1  ON 9
uuO_10 -7.71674e-06 1 1  ON 10
uuO_11 -5.27568e-06 1 1  ON 11
uuO_12 -1.77846e-06 1 1  ON 12
uuO_13 7.92623e-06 1 1  ON 13
uuO_14 1.76741e-06 1 1  ON 14
uuO_15 5.45136e-08 1 1  ON 15
uuO_16 2.80142e-06 1 1  ON 16
uuO_17 4.57728e-06 1 1  ON 17
uuO_18 7.63461e-06 1 1  ON 18
uuO_19 -9.51067e-07 1 1  ON 19
uuO_20 -2.34413e-06 1 1  ON 20
uuO_21 -1.87878e-06 1 1  ON 21
uuO_22 3.93736e-07 1 1  ON 22
uuO_23 5.06535e-07 1 1  ON 23
uuO_24 5.08672e-07 1 1  ON 24
uuO_25 -1.35877e-07 1 1  ON 25
Parameter     Name      Value
udO_0 -6.93953e-06 1 1  ON 0
udO_1 2.63417e-05 1 1  ON 1
udO_2 4.04608e-05 1 1  ON 2
udO_3 -8.00268e-06 1 1  ON 3
udO_4 -5.3968e-06 1 1  ON 4
udO_5 6.69737e-06 1 1  ON 5
udO_6 5.43395e-05 1 1  ON 6
udO_7 -6.33685e-06 1 1  ON 7
udO_8 3.68047e-05 1 1  ON 8
udO_9 -2.99606e-05 1 1  ON 9
udO_10 1.99366e-06 1 1  ON 10
udO_11 -3.22271e-05 1 1  ON 11
udO_12 -8.09167e-06 1 1  ON 12
udO_13 4.15739e-06 1 1  ON 13
udO_14 4.84394e-06 1 1  ON 14
udO_15 3.56365e-07 1 1  ON 15
udO_16 3.78633e-05 1 1  ON 16
udO_17 -1.41834e-05 1 1  ON 17
udO_18 2.28269e-05 1 1  ON 18
udO_19 1.29239e-06 1 1  ON 19
udO_20 -4.93581e-06 1 1  ON 20
udO_21 -3.05254e-06 1 1  ON 21
udO_22 9.87029e-08 1 1  ON 22
udO_23 1.84429e-06 1 1  ON 23
udO_24 2.97056e-07 1 1  ON 24
udO_25 -4.3643e-08 1 1  ON 25
Parameter     Name      Value
uuH_0 1.21983e-05 1 1  ON 0
uuH_1 1.70285e-05 1 1  ON 1
uuH_2 -1.60944e-05 1 1  ON 2
uuH_3 -1.21461e-05 1 1  ON 3
uuH_4 5.89794e-08 1 1  ON 4
uuH_5 -7.84971e-07 1 1  ON 5
uuH_6 7.75018e-06 1 1  ON 6
uuH_7 -2.74556e-05 1 1  ON 7
uuH_8 -1.37775e-05 1 1  ON 8
uuH_9 -1.14428e-05 1 1  ON 9
uuH_10 -1.06388e-05 1 1  ON 10
uuH_11 2.73117e-05 1 1  ON 11
uuH_12 8.30376e-07 1 1  ON 12
uuH_13 1.58423e-05 1 1  ON 13
uuH_14 -2.02534e-06 1 1  ON 14
uuH_15 1.23654e-07 1 1  ON 15
uuH_16 1.05822e-05 1 1  ON 16
uuH_17 1.77824e-05 1 1  ON 17
uuH_18 -2.15364e-05 1 1  ON 18
uuH_19 2.19459e-06 1 1  ON 19
uuH_20 -8.9199e-06 1 1  ON 20
uuH_21 3.22949e-06 1 1  ON 21
uuH_22 -5.14014e-07 1 1  ON 22
uuH_23 2.92814e-06 1 1  ON 23
uuH_24 -7.97265e-07 1 1  ON 24
uuH_25 1.41116e-07 1 1  ON 25
Parameter     Name      Value
udH_0 -2.54349e-06 1 1  ON 0
udH_1 -8.33732e-06 1 1  ON 1
udH_2 3.04386e-06 1 1  ON 2
udH_3 -3.54249e-06 1 1  ON 3
udH_4 -2.70133e-06 1 1  ON 4
udH_5 1.45878e-06 1 1  ON 5
udH_6 7.95043e-06 1 1  ON 6
udH_7 -1.87033e-05 1 1  ON 7
udH_8 -2.24168e-06 1 1  ON 8
udH_9 -4.86877e-06 1 1  ON 9
udH_10 -6.17441e-06 1 1  ON 10
udH_11 1.51731e-05 1 1  ON 11
udH_12 -9.52902e-07 1 1  ON 12
udH_13 9.6868e-06 1 1  ON 13
udH_14 -1.64005e-06 1 1  ON 14
udH_15 2.57667e-07 1 1  ON 15
udH_16 1.39257e-05 1 1  ON 16
udH_17 8.67619e-06 1 1  ON 17
udH_18 -1.64788e-05 1 1  ON 18
udH_19 2.49493e-06 1 1  ON 19
udH_20 -7.72623e-06 1 1  ON 20
udH_21 3.43106e-06 1 1  ON 21
udH_22 -6.6016e-07 1 1  ON 22
udH_23 2.3902e-06 1 1  ON 23
udH_24 -9.16932e-07 1 1  ON 24
udH_25 1.90216e-07 1 1  ON 25
  QMCHamiltonian::addOperator Kinetic to H, physical Hamiltonian 
  QMCHamiltonian::addOperator ElecElec to H, physical Hamiltonian 
QMCHamiltonian::addOperatorType added type coulomb named ElecElec

  ECPotential builder for pseudopotential 

  Adding pseudopotential for O
   Linear grid  ri=0 rf=10 npts = 10001
    ECPComponentBuilder::buildSemiLocalAndLocal 
    Assuming Hartree unit
   Number of angular momentum channels 2
   Maximum angular momentum channel 1
   Creating a Linear Grid Rmax=1.31
  Using global grid with delta = 0.001
   Making L=1 a local potential with a radial cutoff of 9.999
    Non-local pseudopotential parameters
    Maximum angular mementum = 0
    Number of non-local channels = 1
       l(0)=0
    Cutoff radius = 1.31
    Spherical grids and weights: 
                        1                 0                 0       0.08333333333
                       -1   1.224646799e-16                 0       0.08333333333
             0.4472135955       0.894427191                 0       0.08333333333
            -0.4472135955      0.7236067977      0.5257311121       0.08333333333
             0.4472135955      0.2763932023      0.8506508084       0.08333333333
            -0.4472135955     -0.2763932023      0.8506508084       0.08333333333
             0.4472135955     -0.7236067977      0.5257311121       0.08333333333
            -0.4472135955      -0.894427191   1.095357397e-16       0.08333333333
             0.4472135955     -0.7236067977     -0.5257311121       0.08333333333
            -0.4472135955     -0.2763932023     -0.8506508084       0.08333333333
             0.4472135955      0.2763932023     -0.8506508084       0.08333333333
            -0.4472135955      0.7236067977     -0.5257311121       0.08333333333
    Maximum cutoff radius 1.31

  Adding pseudopotential for H
   Linear grid  ri=0 rf=10 npts = 10001
    ECPComponentBuilder::buildSemiLocalAndLocal 
    Assuming Hartree unit
    Only one vps is found. Set the local component=0
   Number of angular momentum channels 1
   Maximum angular momentum channel 0
   Creating a Linear Grid Rmax=1.17
  Using global grid with delta = 0.001
   Making L=0 a local potential with a radial cutoff of 9.999
  QMCHamiltonian::addOperator LocalECP to H, physical Hamiltonian 

  Using NonLocalECP potential 
    Maximum grid on a sphere for NonLocalECPotential: 12
  QMCHamiltonian::addOperator NonLocalECP to H, physical Hamiltonian 
QMCHamiltonian::addOperatorType added type pseudo named ELEMENT-ECP

  Distance table for similar particles (A-A):
    source/target: ion0
    Using structure-of-arrays (SoA) data layout
    Distance computations use open boundary conditions in 3D.

  QMCHamiltonian::addOperator IonIon to H, physical Hamiltonian 
QMCHamiltonian::addOperatorType added type coulomb named IonIon

  QMCHamiltonian::add2WalkerProperty added
    5 to P::PropertyList 
    0 to P::Collectables 
    starting Index of the observables in P::PropertyList = 9
<init source="ion0" target="e">
</init>
ParticleSetPool::randomize 
  Initialization Execution time = 1.541 secs
=========================================================
 Summary of QMC systems 
=========================================================
ParticleSetPool has: 

  ParticleSet e : 0 4 8 

    8

    u -6.2603463466e-01  3.5734656333e-01  6.5772978567e-02
    u -4.0823525221e-01  1.6473700651e-01  5.7458481739e-01
    u  1.8600978066e-01  6.8721913446e-01 -1.3066077284e-01
    u  3.2106391354e-01 -1.6589192454e+00  5.0055456233e-01
    d  6.3345483514e-01 -3.4977207514e-01 -1.8343449160e-02
    d  1.2077446307e-01 -5.1008831422e-01 -4.9916475797e-01
    d  6.9008444085e-01 -1.3487363169e-01  1.7185628532e-01
    d  5.7031466359e-03  1.9049883932e+00  5.6099005940e-01

  ParticleSet ion0 : 0 1 3 

    3

    O  0.0000000000e+00  0.0000000000e+00  0.0000000000e+00
    H  0.0000000000e+00 -1.4308249289e+00  1.1078707576e+00
    H  0.0000000000e+00  1.4308249289e+00  1.1078707576e+00

  Hamiltonian h0
  Kinetic         Kinetic energy
  ElecElec        CoulombAA source/target e

  LocalECP        LocalECPotential: ion0
  NonLocalECP     NonLocalECPotential: ion0
  IonIon          CoulombAA source/target ion0


=========================================================
  Start VMC
  File Root H2O.s001 append = no 
=========================================================
  Adding 4 walkers to 0 existing sets
  Total number of walkers: 8.7040000000e+03
  Total weight: 8.7040000000e+03
  Resetting Properties of the walkers 1 x 14

<vmc function="put">
  qmc_counter=0  my_counter=0
  time step      = 3.0000000000e-01
  blocks         = 1
  steps          = 64
  substeps       = 5
  current        = 0
  target samples = 5.5705600000e+05
  walkers/mpi    = 4

  stepsbetweensamples = 1
<parameter name="blocks" condition="int">1</parameter>
<parameter name="blocks_between_recompute" condition="int">0</parameter>
<parameter name="check_properties" condition="int">100</parameter>
<parameter name="checkproperties" condition="int">100</parameter>
<parameter name="current" condition="int">0</parameter>
<parameter name="dmcwalkersperthread" condition="real">6.4000000000e+01</parameter>
<parameter name="maxcpusecs" condition="real">3.6000000000e+05</parameter>
<parameter name="record_configs" condition="int">0</parameter>
<parameter name="record_walkers" condition="int">1</parameter>
<parameter name="recordconfigs" condition="int">0</parameter>
<parameter name="recordwalkers" condition="int">1</parameter>
<parameter name="rewind" condition="int">0</parameter>
<parameter name="samples" condition="real">5.5705600000e+05</parameter>
<parameter name="samplesperthread" condition="real">6.4000000000e+01</parameter>
<parameter name="steps" condition="int">64</parameter>
<parameter name="stepsbetweensamples" condition="int">1</parameter>
<parameter name="store_configs" condition="int">0</parameter>
<parameter name="storeconfigs" condition="int">0</parameter>
<parameter name="sub_steps" condition="int">5</parameter>
<parameter name="substeps" condition="int">5</parameter>
<parameter name="tau" condition="au">3.0000000000e-01</parameter>
<parameter name="time_step" condition="au">3.0000000000e-01</parameter>
<parameter name="timestep" condition="au">3.0000000000e-01</parameter>
<parameter name="use_drift" condition="string">no</parameter>
<parameter name="usedrift" condition="string">no</parameter>
<parameter name="walkers" condition="int">4</parameter>
<parameter name="warmup_steps" condition="int">100</parameter>
<parameter name="warmupsteps" condition="int">100</parameter>
  DumpConfig==false Nothing (configurations, state) will be saved.
  Walker Samples are dumped every 1 steps.
</vmc>
  CloneManager::makeClones makes 4 clones for W/Psi/H.
  Cloning methods for both Psi and H are used
===== Memory Usage before cloning =====
Available memory on node 0, free + buffers : 90746 MB
Memory footprint by rank 0 on node 0       : 57 MB
==================================================
===== Memory Usage after cloning =====
Available memory on node 0, free + buffers : 90670 MB
Memory footprint by rank 0 on node 0       : 59 MB
==================================================
  Initial partition of walkers 0 1 2 3 4 

  Using Particle by Particle moves
  Walker moves without drift
  Total Sample Size   =557056
  Walker distribution on root = 0 1 2 3 4 
  Using Locality Approximation
===== Memory Usage after the buffer registration =====
Available memory on node 0, free + buffers : 89196 MB
Memory footprint by rank 0 on node 0       : 79 MB
==================================================
  Anonymous Buffer size per walker : 2912 Bytes.
MEMORY increase 0 MB VMC::resetRun
====================================================
  SimpleFixedNodeBranch::finalize after a VMC block
    QMC counter        = 0
    time step          = 0.3
    reference energy   = -17.2405
    reference variance = 0.223176
====================================================
  QMC Execution time = 2.2553e+00 secs

=========================================================
  Start DMC
  File Root H2O.s002 append = no 
=========================================================
Using existing walkers 
  Resetting Properties of the walkers 1 x 14
  EstimatorManagerBase::add replace LocalEnergy estimator.
  Cannot make clones again. Use existing 4 clones
  Total number of walkers: 5.5706e+05
  Total weight: 5.5706e+05
  Creating WalkerController: target  number of walkers = 557056
  Using WalkerControlMPI for dynamic population control.
  START ALL OVER 
  WalkerControlBase parameters 
    maxCopy = 2
    Max Walkers per MPI rank 513
    Min Walkers per MPI rank 52
    Using non-blocking send/recv
  QMC counter      = 1
  time step        = 5.0000e-03
  effective time step = 5.0000e-03
  trial energy     = -1.7241e+01
  reference energy = -1.7241e+01
  Feedback = 1.0000e+00
  reference variance = 2.2318e-01
  target walkers = 557056
  branching cutoff scheme classic
  branch cutoff = 5.0000e+01 7.5000e+01
  Max and minimum walkers per node= 513 52
  QMC Status (BranchMode) = 0000001101
  Initial partition of walkers on a node: 0 64 128 192 256 
  Updates by particle-by-particle moves
  DMC moves are rejected when a node crossing is detected
  Using Non-local T-moves v0, M. Casula, PRB 74, 161102(R) (2006)
===== Memory Usage after the buffer registration =====
Available memory on node 0, free + buffers : 89169 MB
Memory footprint by rank 0 on node 0       : 81 MB
==================================================
SimpleFixedNodeBranch::checkParameters 
  Average Energy of a population  = -17.2479
  Energy Variance = 0.238799

  Fluctuating population
  Persistent walkers are killed after 1 MC sweeps
  BranchInterval = 1
  Steps per block = 3
  Number of blocks = 100

  DMC Engine Initialization = 1.9819e-01 secs

 Warmup is completed after 100

  TauEff     = 4.9776e-03
 TauEff/Tau = 9.9552e-01
  Etrial     = -1.7270e+01
 Running average of energy = -1.7257e+01
                  Variance = 2.4482e-01
branch cutoff = 1.0000e+01 1.5000e+01
====================================================
  SimpleFixedNodeBranch::finalize after a DMC block
    QMC counter                   = 1
    time step                     = 0.005
    effective time step           = 0.00497759
    trial energy                  = -17.2604
    reference energy              = -17.2613
    reference variance            = 0.24482
    target walkers                = 557056
    branch cutoff                 = 10 15
    Max and minimum walkers per node= 513 52
    Feedback                      = 1
    QMC Status (BranchMode)       = 0000001111
====================================================
  QMC Execution time = 6.8622e+01 secs
  Total Execution time = 7.0918e+01 secs

=========================================================
  A new xml input file : H2O.s002.cont.xml
endTime:Mon Nov 30 14:04:38 PST 2020


Starting job in random policy..
startTime:Mon Nov 30 14:04:38 PST 2020

Input file(s): simple-H2O.xml 

=====================================================
                    QMCPACK 3.7.0

       (c) Copyright 2003-  QMCPACK developers

                    Please cite:
 J. Kim et al. J. Phys. Cond. Mat. 30 195901 (2018)
      https://doi.org/10.1088/1361-648X/aab9c3

  Git branch: HEAD
  Last git commit: bc47a435682751c26c2695a005684d95f700bebb-dirty
  Last git commit date: Fri Mar 29 14:11:40 2019 -0500
  Last git commit subject: Merge pull request #1520 from QMCPACK/rc_370
=====================================================
  Global options 

  Total number of MPI ranks = 2176
  Number of MPI groups      = 1
  MPI group ID              = 0
  Number of ranks in group  = 2176
  MPI ranks per node        = 68
  OMP 1st level threads     = 4
  OMP nested threading disabled or only 1 thread on the 2nd level

  Precision used in this calculation, see definitions in the manual:
  Base precision      = double
  Full precision      = double

  Structure-of-arrays (SoA) optimization enabled

  Input XML = simple-H2O.xml

  Project = H2O
  date    = 2020-11-30 14:04:47 PST
  host    = nid02698

 Random Number
 -------------
  Offset for the random number seeds based on time: 127

  Range of prime numbers to use as seeds over processors and threads = 727-91367


 Particle Set 
 ------------
  Name: e
  All the species have the same mass 1
  Particle set size: 8

 Particle Set 
 ------------
  Name: ion0
  All the species have the same mass 1
  Particle set size: 3

 Wavefunction setup: 
 ------------------- 
  Name: psi0
  Created SPOSet builder named 'LCAOBSet' of type molecularorbital
  LCAO: SoaAtomicBasisSet<MultiQuintic,0>

  Distance table for similar particles (A-A):
    source/target: e
    Using structure-of-arrays (SoA) data layout
    Distance computations use open boundary conditions in 3D.


  Distance table for dissimilar particles (A-B):
    source: ion0  target: e
    Using structure-of-arrays (SoA) data layout
    Distance computations use open boundary conditions in 3D.

  AO BasisSet for O
   Angular momentum expanded in cartesian functions x^lx y^ly z^lz according to Gamess
Using log grid with default values: ri = 1e-06 rf = 100 npts = 1001
   R(n,l,m,s) 0 0 0 0
   R(n,l,m,s) 1 0 0 0
   R(n,l,m,s) 2 0 0 0
   R(n,l,m,s) 3 1 0 0
   R(n,l,m,s) 4 1 0 0
   R(n,l,m,s) 5 1 0 0
   R(n,l,m,s) 6 2 0 0
   R(n,l,m,s) 7 2 0 0
   R(n,l,m,s) 8 3 0 0
Expanding Ylm (angular function) according to Gamess using cartesian gaussians
Adding 1 cartesian gaussian orbitals for l= 0
Adding 1 cartesian gaussian orbitals for l= 0
Adding 1 cartesian gaussian orbitals for l= 0
Adding 3 cartesian gaussian orbitals for l= 1
Adding 3 cartesian gaussian orbitals for l= 1
Adding 3 cartesian gaussian orbitals for l= 1
Adding 6 cartesian gaussian orbitals for l= 2
Adding 6 cartesian gaussian orbitals for l= 2
Adding 10 cartesian gaussian orbitals for l= 3
  Setting cutoff radius 10.1859

   Maximum Angular Momentum  = 3
   Number of Radial functors = 9
   Basis size                = 34

  AO BasisSet for H
   Angular momentum expanded in cartesian functions x^lx y^ly z^lz according to Gamess
Using log grid with default values: ri = 1e-06 rf = 100 npts = 1001
   R(n,l,m,s) 0 0 0 0
   R(n,l,m,s) 1 0 0 0
   R(n,l,m,s) 2 0 0 0
   R(n,l,m,s) 3 1 0 0
   R(n,l,m,s) 4 1 0 0
   R(n,l,m,s) 5 2 0 0
Expanding Ylm (angular function) according to Gamess using cartesian gaussians
Adding 1 cartesian gaussian orbitals for l= 0
Adding 1 cartesian gaussian orbitals for l= 0
Adding 1 cartesian gaussian orbitals for l= 0
Adding 3 cartesian gaussian orbitals for l= 1
Adding 3 cartesian gaussian orbitals for l= 1
Adding 6 cartesian gaussian orbitals for l= 2
  Setting cutoff radius 19.4089

   Maximum Angular Momentum  = 2
   Number of Radial functors = 6
   Basis size                = 15

Reuse SPOSetBuilder "LCAOBSet" type MolecularOrbital
  Building SPOSet '' with '' basis set.
Reuse SPOSetBuilder "LCAOBSet" type MolecularOrbital
  Building SPOSet '' with '' basis set.
  Creating a determinant updet group=0 sposet=updet
  Reusing a SPO set updet
Using DiracDeterminant with DelayedUpdate engine
Using rank-1 Sherman-Morrison Fahy update

  Creating a determinant downdet group=1 sposet=downdet
  Reusing a SPO set downdet
Using DiracDeterminant with DelayedUpdate engine
Using rank-1 Sherman-Morrison Fahy update

  FermionWF = SlaterDet
  RadialJastrowBuilder adds a functor with cusp = -0.25
 size = 10 parameters 
 cusp = -0.25
 rcut = 10
Parameter     Name      Value
uu_0 0.029047 1 1  ON 0
uu_1 -0.100418 1 1  ON 1
uu_2 -0.17527 1 1  ON 2
uu_3 -0.223258 1 1  ON 3
uu_4 -0.272803 1 1  ON 4
uu_5 -0.325329 1 1  ON 5
uu_6 -0.362453 1 1  ON 6
uu_7 -0.395822 1 1  ON 7
uu_8 -0.426858 1 1  ON 8
uu_9 -0.439453 1 1  ON 9
  RadialJastrowBuilder adds a functor with cusp = -0.5
 size = 10 parameters 
 cusp = -0.5
 rcut = 10
Parameter     Name      Value
ud_0 0.930669 1 1  ON 0
ud_1 0.628359 1 1  ON 1
ud_2 0.463024 1 1  ON 2
ud_3 0.375585 1 1  ON 3
ud_4 0.333251 1 1  ON 4
ud_5 0.297451 1 1  ON 5
ud_6 0.255069 1 1  ON 6
ud_7 0.197016 1 1  ON 7
ud_8 0.135704 1 1  ON 8
ud_9 0.11181 1 1  ON 9
 size = 10 parameters 
 cusp = 0
 rcut = 10
Parameter     Name      Value
eO_0 -4.0158 1 1  ON 0
eO_1 -3.62877 1 1  ON 1
eO_2 -2.75734 1 1  ON 2
eO_3 -1.83881 1 1  ON 3
eO_4 -1.15124 1 1  ON 4
eO_5 -0.462677 1 1  ON 5
eO_6 -0.212032 1 1  ON 6
eO_7 -0.139318 1 1  ON 7
eO_8 0.513465 1 1  ON 8
eO_9 6.44894 1 1  ON 9
 size = 10 parameters 
 cusp = 0
 rcut = 10
Parameter     Name      Value
eH_0 -0.335752 1 1  ON 0
eH_1 -0.295754 1 1  ON 1
eH_2 -0.27382 1 1  ON 2
eH_3 -0.226322 1 1  ON 3
eH_4 -0.176979 1 1  ON 4
eH_5 -0.176265 1 1  ON 5
eH_6 -0.189957 1 1  ON 6
eH_7 -0.181647 1 1  ON 7
eH_8 -0.038387 1 1  ON 8
eH_9 0.345305 1 1  ON 9
Parameter     Name      Value
uuO_0 8.22771e-06 1 1  ON 0
uuO_1 2.48082e-06 1 1  ON 1
uuO_2 -5.35407e-06 1 1  ON 2
uuO_3 -1.11264e-05 1 1  ON 3
uuO_4 -2.20801e-06 1 1  ON 4
uuO_5 5.21312e-06 1 1  ON 5
uuO_6 -1.53787e-05 1 1  ON 6
uuO_7 8.89903e-06 1 1  ON 7
uuO_8 6.25726e-06 1 1  ON 8
uuO_9 3.21458e-06 1 1  ON 9
uuO_10 -7.71674e-06 1 1  ON 10
uuO_11 -5.27568e-06 1 1  ON 11
uuO_12 -1.77846e-06 1 1  ON 12
uuO_13 7.92623e-06 1 1  ON 13
uuO_14 1.76741e-06 1 1  ON 14
uuO_15 5.45136e-08 1 1  ON 15
uuO_16 2.80142e-06 1 1  ON 16
uuO_17 4.57728e-06 1 1  ON 17
uuO_18 7.63461e-06 1 1  ON 18
uuO_19 -9.51067e-07 1 1  ON 19
uuO_20 -2.34413e-06 1 1  ON 20
uuO_21 -1.87878e-06 1 1  ON 21
uuO_22 3.93736e-07 1 1  ON 22
uuO_23 5.06535e-07 1 1  ON 23
uuO_24 5.08672e-07 1 1  ON 24
uuO_25 -1.35877e-07 1 1  ON 25
Parameter     Name      Value
udO_0 -6.93953e-06 1 1  ON 0
udO_1 2.63417e-05 1 1  ON 1
udO_2 4.04608e-05 1 1  ON 2
udO_3 -8.00268e-06 1 1  ON 3
udO_4 -5.3968e-06 1 1  ON 4
udO_5 6.69737e-06 1 1  ON 5
udO_6 5.43395e-05 1 1  ON 6
udO_7 -6.33685e-06 1 1  ON 7
udO_8 3.68047e-05 1 1  ON 8
udO_9 -2.99606e-05 1 1  ON 9
udO_10 1.99366e-06 1 1  ON 10
udO_11 -3.22271e-05 1 1  ON 11
udO_12 -8.09167e-06 1 1  ON 12
udO_13 4.15739e-06 1 1  ON 13
udO_14 4.84394e-06 1 1  ON 14
udO_15 3.56365e-07 1 1  ON 15
udO_16 3.78633e-05 1 1  ON 16
udO_17 -1.41834e-05 1 1  ON 17
udO_18 2.28269e-05 1 1  ON 18
udO_19 1.29239e-06 1 1  ON 19
udO_20 -4.93581e-06 1 1  ON 20
udO_21 -3.05254e-06 1 1  ON 21
udO_22 9.87029e-08 1 1  ON 22
udO_23 1.84429e-06 1 1  ON 23
udO_24 2.97056e-07 1 1  ON 24
udO_25 -4.3643e-08 1 1  ON 25
Parameter     Name      Value
uuH_0 1.21983e-05 1 1  ON 0
uuH_1 1.70285e-05 1 1  ON 1
uuH_2 -1.60944e-05 1 1  ON 2
uuH_3 -1.21461e-05 1 1  ON 3
uuH_4 5.89794e-08 1 1  ON 4
uuH_5 -7.84971e-07 1 1  ON 5
uuH_6 7.75018e-06 1 1  ON 6
uuH_7 -2.74556e-05 1 1  ON 7
uuH_8 -1.37775e-05 1 1  ON 8
uuH_9 -1.14428e-05 1 1  ON 9
uuH_10 -1.06388e-05 1 1  ON 10
uuH_11 2.73117e-05 1 1  ON 11
uuH_12 8.30376e-07 1 1  ON 12
uuH_13 1.58423e-05 1 1  ON 13
uuH_14 -2.02534e-06 1 1  ON 14
uuH_15 1.23654e-07 1 1  ON 15
uuH_16 1.05822e-05 1 1  ON 16
uuH_17 1.77824e-05 1 1  ON 17
uuH_18 -2.15364e-05 1 1  ON 18
uuH_19 2.19459e-06 1 1  ON 19
uuH_20 -8.9199e-06 1 1  ON 20
uuH_21 3.22949e-06 1 1  ON 21
uuH_22 -5.14014e-07 1 1  ON 22
uuH_23 2.92814e-06 1 1  ON 23
uuH_24 -7.97265e-07 1 1  ON 24
uuH_25 1.41116e-07 1 1  ON 25
Parameter     Name      Value
udH_0 -2.54349e-06 1 1  ON 0
udH_1 -8.33732e-06 1 1  ON 1
udH_2 3.04386e-06 1 1  ON 2
udH_3 -3.54249e-06 1 1  ON 3
udH_4 -2.70133e-06 1 1  ON 4
udH_5 1.45878e-06 1 1  ON 5
udH_6 7.95043e-06 1 1  ON 6
udH_7 -1.87033e-05 1 1  ON 7
udH_8 -2.24168e-06 1 1  ON 8
udH_9 -4.86877e-06 1 1  ON 9
udH_10 -6.17441e-06 1 1  ON 10
udH_11 1.51731e-05 1 1  ON 11
udH_12 -9.52902e-07 1 1  ON 12
udH_13 9.6868e-06 1 1  ON 13
udH_14 -1.64005e-06 1 1  ON 14
udH_15 2.57667e-07 1 1  ON 15
udH_16 1.39257e-05 1 1  ON 16
udH_17 8.67619e-06 1 1  ON 17
udH_18 -1.64788e-05 1 1  ON 18
udH_19 2.49493e-06 1 1  ON 19
udH_20 -7.72623e-06 1 1  ON 20
udH_21 3.43106e-06 1 1  ON 21
udH_22 -6.6016e-07 1 1  ON 22
udH_23 2.3902e-06 1 1  ON 23
udH_24 -9.16932e-07 1 1  ON 24
udH_25 1.90216e-07 1 1  ON 25
  QMCHamiltonian::addOperator Kinetic to H, physical Hamiltonian 
  QMCHamiltonian::addOperator ElecElec to H, physical Hamiltonian 
QMCHamiltonian::addOperatorType added type coulomb named ElecElec

  ECPotential builder for pseudopotential 

  Adding pseudopotential for O
   Linear grid  ri=0 rf=10 npts = 10001
    ECPComponentBuilder::buildSemiLocalAndLocal 
    Assuming Hartree unit
   Number of angular momentum channels 2
   Maximum angular momentum channel 1
   Creating a Linear Grid Rmax=1.31
  Using global grid with delta = 0.001
   Making L=1 a local potential with a radial cutoff of 9.999
    Non-local pseudopotential parameters
    Maximum angular mementum = 0
    Number of non-local channels = 1
       l(0)=0
    Cutoff radius = 1.31
    Spherical grids and weights: 
                        1                 0                 0       0.08333333333
                       -1   1.224646799e-16                 0       0.08333333333
             0.4472135955       0.894427191                 0       0.08333333333
            -0.4472135955      0.7236067977      0.5257311121       0.08333333333
             0.4472135955      0.2763932023      0.8506508084       0.08333333333
            -0.4472135955     -0.2763932023      0.8506508084       0.08333333333
             0.4472135955     -0.7236067977      0.5257311121       0.08333333333
            -0.4472135955      -0.894427191   1.095357397e-16       0.08333333333
             0.4472135955     -0.7236067977     -0.5257311121       0.08333333333
            -0.4472135955     -0.2763932023     -0.8506508084       0.08333333333
             0.4472135955      0.2763932023     -0.8506508084       0.08333333333
            -0.4472135955      0.7236067977     -0.5257311121       0.08333333333
    Maximum cutoff radius 1.31

  Adding pseudopotential for H
   Linear grid  ri=0 rf=10 npts = 10001
    ECPComponentBuilder::buildSemiLocalAndLocal 
    Assuming Hartree unit
    Only one vps is found. Set the local component=0
   Number of angular momentum channels 1
   Maximum angular momentum channel 0
   Creating a Linear Grid Rmax=1.17
  Using global grid with delta = 0.001
   Making L=0 a local potential with a radial cutoff of 9.999
  QMCHamiltonian::addOperator LocalECP to H, physical Hamiltonian 

  Using NonLocalECP potential 
    Maximum grid on a sphere for NonLocalECPotential: 12
  QMCHamiltonian::addOperator NonLocalECP to H, physical Hamiltonian 
QMCHamiltonian::addOperatorType added type pseudo named ELEMENT-ECP

  Distance table for similar particles (A-A):
    source/target: ion0
    Using structure-of-arrays (SoA) data layout
    Distance computations use open boundary conditions in 3D.

  QMCHamiltonian::addOperator IonIon to H, physical Hamiltonian 
QMCHamiltonian::addOperatorType added type coulomb named IonIon

  QMCHamiltonian::add2WalkerProperty added
    5 to P::PropertyList 
    0 to P::Collectables 
    starting Index of the observables in P::PropertyList = 9
<init source="ion0" target="e">
</init>
ParticleSetPool::randomize 
  Initialization Execution time = 1.944 secs
=========================================================
 Summary of QMC systems 
=========================================================
ParticleSetPool has: 

  ParticleSet e : 0 4 8 

    8

    u -7.2362805974e-01 -1.7441681111e-02 -4.8347467340e-04
    u  1.4798771695e-01  2.5489887135e-01 -6.6111134905e-01
    u -6.0948330719e-01  1.3043788550e-01  3.6804628937e-01
    u -2.0407288806e-01 -1.3256802905e+00  4.2140089212e-01
    d  5.7499936398e-01 -1.4995317214e-01  4.1331802818e-01
    d -4.5035009951e-01 -5.4826145638e-01 -1.4330449453e-01
    d -5.1770790761e-01 -3.6003314079e-01  3.5538243452e-01
    d  4.5592717352e-03  2.0737826955e+00  7.7541543990e-01

  ParticleSet ion0 : 0 1 3 

    3

    O  0.0000000000e+00  0.0000000000e+00  0.0000000000e+00
    H  0.0000000000e+00 -1.4308249289e+00  1.1078707576e+00
    H  0.0000000000e+00  1.4308249289e+00  1.1078707576e+00

  Hamiltonian h0
  Kinetic         Kinetic energy
  ElecElec        CoulombAA source/target e

  LocalECP        LocalECPotential: ion0
  NonLocalECP     NonLocalECPotential: ion0
  IonIon          CoulombAA source/target ion0


=========================================================
  Start VMC
  File Root H2O.s001 append = no 
=========================================================
  Adding 4 walkers to 0 existing sets
  Total number of walkers: 8.7040000000e+03
  Total weight: 8.7040000000e+03
  Resetting Properties of the walkers 1 x 14

<vmc function="put">
  qmc_counter=0  my_counter=0
  time step      = 3.0000000000e-01
  blocks         = 1
  steps          = 64
  substeps       = 5
  current        = 0
  target samples = 5.5705600000e+05
  walkers/mpi    = 4

  stepsbetweensamples = 1
<parameter name="blocks" condition="int">1</parameter>
<parameter name="blocks_between_recompute" condition="int">0</parameter>
<parameter name="check_properties" condition="int">100</parameter>
<parameter name="checkproperties" condition="int">100</parameter>
<parameter name="current" condition="int">0</parameter>
<parameter name="dmcwalkersperthread" condition="real">6.4000000000e+01</parameter>
<parameter name="maxcpusecs" condition="real">3.6000000000e+05</parameter>
<parameter name="record_configs" condition="int">0</parameter>
<parameter name="record_walkers" condition="int">1</parameter>
<parameter name="recordconfigs" condition="int">0</parameter>
<parameter name="recordwalkers" condition="int">1</parameter>
<parameter name="rewind" condition="int">0</parameter>
<parameter name="samples" condition="real">5.5705600000e+05</parameter>
<parameter name="samplesperthread" condition="real">6.4000000000e+01</parameter>
<parameter name="steps" condition="int">64</parameter>
<parameter name="stepsbetweensamples" condition="int">1</parameter>
<parameter name="store_configs" condition="int">0</parameter>
<parameter name="storeconfigs" condition="int">0</parameter>
<parameter name="sub_steps" condition="int">5</parameter>
<parameter name="substeps" condition="int">5</parameter>
<parameter name="tau" condition="au">3.0000000000e-01</parameter>
<parameter name="time_step" condition="au">3.0000000000e-01</parameter>
<parameter name="timestep" condition="au">3.0000000000e-01</parameter>
<parameter name="use_drift" condition="string">no</parameter>
<parameter name="usedrift" condition="string">no</parameter>
<parameter name="walkers" condition="int">4</parameter>
<parameter name="warmup_steps" condition="int">100</parameter>
<parameter name="warmupsteps" condition="int">100</parameter>
  DumpConfig==false Nothing (configurations, state) will be saved.
  Walker Samples are dumped every 1 steps.
</vmc>
  CloneManager::makeClones makes 4 clones for W/Psi/H.
  Cloning methods for both Psi and H are used
===== Memory Usage before cloning =====
Available memory on node 0, free + buffers : 90631 MB
Memory footprint by rank 0 on node 0       : 57 MB
==================================================
===== Memory Usage after cloning =====
Available memory on node 0, free + buffers : 90520 MB
Memory footprint by rank 0 on node 0       : 59 MB
==================================================
  Initial partition of walkers 0 1 2 3 4 

  Using Particle by Particle moves
  Walker moves without drift
  Total Sample Size   =557056
  Walker distribution on root = 0 1 2 3 4 
  Using Locality Approximation
===== Memory Usage after the buffer registration =====
Available memory on node 0, free + buffers : 89087 MB
Memory footprint by rank 0 on node 0       : 79 MB
==================================================
  Anonymous Buffer size per walker : 2912 Bytes.
MEMORY increase 0 MB VMC::resetRun
====================================================
  SimpleFixedNodeBranch::finalize after a VMC block
    QMC counter        = 0
    time step          = 0.3
    reference energy   = -17.2635
    reference variance = 0.314668
====================================================
  QMC Execution time = 2.0711e+00 secs

=========================================================
  Start DMC
  File Root H2O.s002 append = no 
=========================================================
Using existing walkers 
  Resetting Properties of the walkers 1 x 14
  EstimatorManagerBase::add replace LocalEnergy estimator.
  Cannot make clones again. Use existing 4 clones
  Total number of walkers: 5.5706e+05
  Total weight: 5.5706e+05
  Creating WalkerController: target  number of walkers = 557056
  Using WalkerControlMPI for dynamic population control.
  START ALL OVER 
  WalkerControlBase parameters 
    maxCopy = 2
    Max Walkers per MPI rank 513
    Min Walkers per MPI rank 52
    Using non-blocking send/recv
  QMC counter      = 1
  time step        = 5.0000e-03
  effective time step = 5.0000e-03
  trial energy     = -1.7264e+01
  reference energy = -1.7264e+01
  Feedback = 1.0000e+00
  reference variance = 3.1467e-01
  target walkers = 557056
  branching cutoff scheme classic
  branch cutoff = 5.0000e+01 7.5000e+01
  Max and minimum walkers per node= 513 52
  QMC Status (BranchMode) = 0000001101
  Initial partition of walkers on a node: 0 64 128 192 256 
  Updates by particle-by-particle moves
  DMC moves are rejected when a node crossing is detected
  Using Non-local T-moves v0, M. Casula, PRB 74, 161102(R) (2006)
===== Memory Usage after the buffer registration =====
Available memory on node 0, free + buffers : 89043 MB
Memory footprint by rank 0 on node 0       : 82 MB
==================================================
SimpleFixedNodeBranch::checkParameters 
  Average Energy of a population  = -17.2468
  Energy Variance = 0.233194

  Fluctuating population
  Persistent walkers are killed after 1 MC sweeps
  BranchInterval = 1
  Steps per block = 3
  Number of blocks = 100

  DMC Engine Initialization = 1.7759e-01 secs

 Warmup is completed after 100

  TauEff     = 4.9776e-03
 TauEff/Tau = 9.9551e-01
  Etrial     = -1.7269e+01
 Running average of energy = -1.7257e+01
                  Variance = 2.4242e-01
branch cutoff = 1.0000e+01 1.5000e+01
====================================================
  SimpleFixedNodeBranch::finalize after a DMC block
    QMC counter                   = 1
    time step                     = 0.005
    effective time step           = 0.00497758
    trial energy                  = -17.2605
    reference energy              = -17.2606
    reference variance            = 0.24242
    target walkers                = 557056
    branch cutoff                 = 10 15
    Max and minimum walkers per node= 513 52
    Feedback                      = 1
    QMC Status (BranchMode)       = 0000001111
====================================================
  QMC Execution time = 7.2649e+01 secs
[...]
startTime:Mon Nov 30 16:12:56 PST 2020

Input file(s): simple-H2O.xml 

=====================================================
                    QMCPACK 3.7.0

       (c) Copyright 2003-  QMCPACK developers

                    Please cite:
 J. Kim et al. J. Phys. Cond. Mat. 30 195901 (2018)
      https://doi.org/10.1088/1361-648X/aab9c3

  Git branch: HEAD
  Last git commit: bc47a435682751c26c2695a005684d95f700bebb-dirty
  Last git commit date: Fri Mar 29 14:11:40 2019 -0500
  Last git commit subject: Merge pull request #1520 from QMCPACK/rc_370
=====================================================
  Global options 

  Total number of MPI ranks = 2176
  Number of MPI groups      = 1
  MPI group ID              = 0
  Number of ranks in group  = 2176
  MPI ranks per node        = 68
  OMP 1st level threads     = 4
  OMP nested threading disabled or only 1 thread on the 2nd level

  Precision used in this calculation, see definitions in the manual:
  Base precision      = double
  Full precision      = double

  Structure-of-arrays (SoA) optimization enabled

  Input XML = simple-H2O.xml

  Project = H2O
  date    = 2020-11-30 16:13:04 PST
  host    = nid03260

 Random Number
 -------------
  Offset for the random number seeds based on time: 656

  Range of prime numbers to use as seeds over processors and threads = 4931-97367


 Particle Set 
 ------------
  Name: e
  All the species have the same mass 1
  Particle set size: 8

 Particle Set 
 ------------
  Name: ion0
  All the species have the same mass 1
  Particle set size: 3

 Wavefunction setup: 
 ------------------- 
  Name: psi0
  Created SPOSet builder named 'LCAOBSet' of type molecularorbital
  LCAO: SoaAtomicBasisSet<MultiQuintic,0>

  Distance table for similar particles (A-A):
    source/target: e
    Using structure-of-arrays (SoA) data layout
    Distance computations use open boundary conditions in 3D.


  Distance table for dissimilar particles (A-B):
    source: ion0  target: e
    Using structure-of-arrays (SoA) data layout
    Distance computations use open boundary conditions in 3D.

  AO BasisSet for O
   Angular momentum expanded in cartesian functions x^lx y^ly z^lz according to Gamess
Using log grid with default values: ri = 1e-06 rf = 100 npts = 1001
   R(n,l,m,s) 0 0 0 0
   R(n,l,m,s) 1 0 0 0
   R(n,l,m,s) 2 0 0 0
   R(n,l,m,s) 3 1 0 0
   R(n,l,m,s) 4 1 0 0
   R(n,l,m,s) 5 1 0 0
   R(n,l,m,s) 6 2 0 0
   R(n,l,m,s) 7 2 0 0
   R(n,l,m,s) 8 3 0 0
Expanding Ylm (angular function) according to Gamess using cartesian gaussians
Adding 1 cartesian gaussian orbitals for l= 0
Adding 1 cartesian gaussian orbitals for l= 0
Adding 1 cartesian gaussian orbitals for l= 0
Adding 3 cartesian gaussian orbitals for l= 1
Adding 3 cartesian gaussian orbitals for l= 1
Adding 3 cartesian gaussian orbitals for l= 1
Adding 6 cartesian gaussian orbitals for l= 2
Adding 6 cartesian gaussian orbitals for l= 2
Adding 10 cartesian gaussian orbitals for l= 3
  Setting cutoff radius 10.1859

   Maximum Angular Momentum  = 3
   Number of Radial functors = 9
   Basis size                = 34

  AO BasisSet for H
   Angular momentum expanded in cartesian functions x^lx y^ly z^lz according to Gamess
Using log grid with default values: ri = 1e-06 rf = 100 npts = 1001
   R(n,l,m,s) 0 0 0 0
   R(n,l,m,s) 1 0 0 0
   R(n,l,m,s) 2 0 0 0
   R(n,l,m,s) 3 1 0 0
   R(n,l,m,s) 4 1 0 0
   R(n,l,m,s) 5 2 0 0
Expanding Ylm (angular function) according to Gamess using cartesian gaussians
Adding 1 cartesian gaussian orbitals for l= 0
Adding 1 cartesian gaussian orbitals for l= 0
Adding 1 cartesian gaussian orbitals for l= 0
Adding 3 cartesian gaussian orbitals for l= 1
Adding 3 cartesian gaussian orbitals for l= 1
Adding 6 cartesian gaussian orbitals for l= 2
  Setting cutoff radius 19.4089

   Maximum Angular Momentum  = 2
   Number of Radial functors = 6
   Basis size                = 15

Reuse SPOSetBuilder "LCAOBSet" type MolecularOrbital
  Building SPOSet '' with '' basis set.
Reuse SPOSetBuilder "LCAOBSet" type MolecularOrbital
  Building SPOSet '' with '' basis set.
  Creating a determinant updet group=0 sposet=updet
  Reusing a SPO set updet
Using DiracDeterminant with DelayedUpdate engine
Using rank-1 Sherman-Morrison Fahy update

  Creating a determinant downdet group=1 sposet=downdet
  Reusing a SPO set downdet
Using DiracDeterminant with DelayedUpdate engine
Using rank-1 Sherman-Morrison Fahy update

  FermionWF = SlaterDet
  RadialJastrowBuilder adds a functor with cusp = -0.25
 size = 10 parameters 
 cusp = -0.25
 rcut = 10
Parameter     Name      Value
uu_0 0.029047 1 1  ON 0
uu_1 -0.100418 1 1  ON 1
uu_2 -0.17527 1 1  ON 2
uu_3 -0.223258 1 1  ON 3
uu_4 -0.272803 1 1  ON 4
uu_5 -0.325329 1 1  ON 5
uu_6 -0.362453 1 1  ON 6
uu_7 -0.395822 1 1  ON 7
uu_8 -0.426858 1 1  ON 8
uu_9 -0.439453 1 1  ON 9
  RadialJastrowBuilder adds a functor with cusp = -0.5
 size = 10 parameters 
 cusp = -0.5
 rcut = 10
Parameter     Name      Value
ud_0 0.930669 1 1  ON 0
ud_1 0.628359 1 1  ON 1
ud_2 0.463024 1 1  ON 2
ud_3 0.375585 1 1  ON 3
ud_4 0.333251 1 1  ON 4
ud_5 0.297451 1 1  ON 5
ud_6 0.255069 1 1  ON 6
ud_7 0.197016 1 1  ON 7
ud_8 0.135704 1 1  ON 8
ud_9 0.11181 1 1  ON 9
 size = 10 parameters 
 cusp = 0
 rcut = 10
Parameter     Name      Value
eO_0 -4.0158 1 1  ON 0
eO_1 -3.62877 1 1  ON 1
eO_2 -2.75734 1 1  ON 2
eO_3 -1.83881 1 1  ON 3
eO_4 -1.15124 1 1  ON 4
eO_5 -0.462677 1 1  ON 5
eO_6 -0.212032 1 1  ON 6
eO_7 -0.139318 1 1  ON 7
eO_8 0.513465 1 1  ON 8
eO_9 6.44894 1 1  ON 9
 size = 10 parameters 
 cusp = 0
 rcut = 10
Parameter     Name      Value
eH_0 -0.335752 1 1  ON 0
eH_1 -0.295754 1 1  ON 1
eH_2 -0.27382 1 1  ON 2
eH_3 -0.226322 1 1  ON 3
eH_4 -0.176979 1 1  ON 4
eH_5 -0.176265 1 1  ON 5
eH_6 -0.189957 1 1  ON 6
eH_7 -0.181647 1 1  ON 7
eH_8 -0.038387 1 1  ON 8
eH_9 0.345305 1 1  ON 9
Parameter     Name      Value
uuO_0 8.22771e-06 1 1  ON 0
uuO_1 2.48082e-06 1 1  ON 1
uuO_2 -5.35407e-06 1 1  ON 2
uuO_3 -1.11264e-05 1 1  ON 3
uuO_4 -2.20801e-06 1 1  ON 4
uuO_5 5.21312e-06 1 1  ON 5
uuO_6 -1.53787e-05 1 1  ON 6
uuO_7 8.89903e-06 1 1  ON 7
uuO_8 6.25726e-06 1 1  ON 8
uuO_9 3.21458e-06 1 1  ON 9
uuO_10 -7.71674e-06 1 1  ON 10
uuO_11 -5.27568e-06 1 1  ON 11
uuO_12 -1.77846e-06 1 1  ON 12
uuO_13 7.92623e-06 1 1  ON 13
uuO_14 1.76741e-06 1 1  ON 14
uuO_15 5.45136e-08 1 1  ON 15
uuO_16 2.80142e-06 1 1  ON 16
uuO_17 4.57728e-06 1 1  ON 17
uuO_18 7.63461e-06 1 1  ON 18
uuO_19 -9.51067e-07 1 1  ON 19
uuO_20 -2.34413e-06 1 1  ON 20
uuO_21 -1.87878e-06 1 1  ON 21
uuO_22 3.93736e-07 1 1  ON 22
uuO_23 5.06535e-07 1 1  ON 23
uuO_24 5.08672e-07 1 1  ON 24
uuO_25 -1.35877e-07 1 1  ON 25
Parameter     Name      Value
udO_0 -6.93953e-06 1 1  ON 0
udO_1 2.63417e-05 1 1  ON 1
udO_2 4.04608e-05 1 1  ON 2
udO_3 -8.00268e-06 1 1  ON 3
udO_4 -5.3968e-06 1 1  ON 4
udO_5 6.69737e-06 1 1  ON 5
udO_6 5.43395e-05 1 1  ON 6
udO_7 -6.33685e-06 1 1  ON 7
udO_8 3.68047e-05 1 1  ON 8
udO_9 -2.99606e-05 1 1  ON 9
udO_10 1.99366e-06 1 1  ON 10
udO_11 -3.22271e-05 1 1  ON 11
udO_12 -8.09167e-06 1 1  ON 12
udO_13 4.15739e-06 1 1  ON 13
udO_14 4.84394e-06 1 1  ON 14
udO_15 3.56365e-07 1 1  ON 15
udO_16 3.78633e-05 1 1  ON 16
udO_17 -1.41834e-05 1 1  ON 17
udO_18 2.28269e-05 1 1  ON 18
udO_19 1.29239e-06 1 1  ON 19
udO_20 -4.93581e-06 1 1  ON 20
udO_21 -3.05254e-06 1 1  ON 21
udO_22 9.87029e-08 1 1  ON 22
udO_23 1.84429e-06 1 1  ON 23
udO_24 2.97056e-07 1 1  ON 24
udO_25 -4.3643e-08 1 1  ON 25
Parameter     Name      Value
uuH_0 1.21983e-05 1 1  ON 0
uuH_1 1.70285e-05 1 1  ON 1
uuH_2 -1.60944e-05 1 1  ON 2
uuH_3 -1.21461e-05 1 1  ON 3
uuH_4 5.89794e-08 1 1  ON 4
uuH_5 -7.84971e-07 1 1  ON 5
uuH_6 7.75018e-06 1 1  ON 6
uuH_7 -2.74556e-05 1 1  ON 7
uuH_8 -1.37775e-05 1 1  ON 8
uuH_9 -1.14428e-05 1 1  ON 9
uuH_10 -1.06388e-05 1 1  ON 10
uuH_11 2.73117e-05 1 1  ON 11
uuH_12 8.30376e-07 1 1  ON 12
uuH_13 1.58423e-05 1 1  ON 13
uuH_14 -2.02534e-06 1 1  ON 14
uuH_15 1.23654e-07 1 1  ON 15
uuH_16 1.05822e-05 1 1  ON 16
uuH_17 1.77824e-05 1 1  ON 17
uuH_18 -2.15364e-05 1 1  ON 18
uuH_19 2.19459e-06 1 1  ON 19
uuH_20 -8.9199e-06 1 1  ON 20
uuH_21 3.22949e-06 1 1  ON 21
uuH_22 -5.14014e-07 1 1  ON 22
uuH_23 2.92814e-06 1 1  ON 23
uuH_24 -7.97265e-07 1 1  ON 24
uuH_25 1.41116e-07 1 1  ON 25
Parameter     Name      Value
udH_0 -2.54349e-06 1 1  ON 0
udH_1 -8.33732e-06 1 1  ON 1
udH_2 3.04386e-06 1 1  ON 2
udH_3 -3.54249e-06 1 1  ON 3
udH_4 -2.70133e-06 1 1  ON 4
udH_5 1.45878e-06 1 1  ON 5
udH_6 7.95043e-06 1 1  ON 6
udH_7 -1.87033e-05 1 1  ON 7
udH_8 -2.24168e-06 1 1  ON 8
udH_9 -4.86877e-06 1 1  ON 9
udH_10 -6.17441e-06 1 1  ON 10
udH_11 1.51731e-05 1 1  ON 11
udH_12 -9.52902e-07 1 1  ON 12
udH_13 9.6868e-06 1 1  ON 13
udH_14 -1.64005e-06 1 1  ON 14
udH_15 2.57667e-07 1 1  ON 15
udH_16 1.39257e-05 1 1  ON 16
udH_17 8.67619e-06 1 1  ON 17
udH_18 -1.64788e-05 1 1  ON 18
udH_19 2.49493e-06 1 1  ON 19
udH_20 -7.72623e-06 1 1  ON 20
udH_21 3.43106e-06 1 1  ON 21
udH_22 -6.6016e-07 1 1  ON 22
udH_23 2.3902e-06 1 1  ON 23
udH_24 -9.16932e-07 1 1  ON 24
udH_25 1.90216e-07 1 1  ON 25
  QMCHamiltonian::addOperator Kinetic to H, physical Hamiltonian 
  QMCHamiltonian::addOperator ElecElec to H, physical Hamiltonian 
QMCHamiltonian::addOperatorType added type coulomb named ElecElec

  ECPotential builder for pseudopotential 

  Adding pseudopotential for O
   Linear grid  ri=0 rf=10 npts = 10001
    ECPComponentBuilder::buildSemiLocalAndLocal 
    Assuming Hartree unit
   Number of angular momentum channels 2
   Maximum angular momentum channel 1
   Creating a Linear Grid Rmax=1.31
  Using global grid with delta = 0.001
   Making L=1 a local potential with a radial cutoff of 9.999
    Non-local pseudopotential parameters
    Maximum angular mementum = 0
    Number of non-local channels = 1
       l(0)=0
    Cutoff radius = 1.31
    Spherical grids and weights: 
                        1                 0                 0       0.08333333333
                       -1   1.224646799e-16                 0       0.08333333333
             0.4472135955       0.894427191                 0       0.08333333333
            -0.4472135955      0.7236067977      0.5257311121       0.08333333333
             0.4472135955      0.2763932023      0.8506508084       0.08333333333
            -0.4472135955     -0.2763932023      0.8506508084       0.08333333333
             0.4472135955     -0.7236067977      0.5257311121       0.08333333333
            -0.4472135955      -0.894427191   1.095357397e-16       0.08333333333
             0.4472135955     -0.7236067977     -0.5257311121       0.08333333333
            -0.4472135955     -0.2763932023     -0.8506508084       0.08333333333
             0.4472135955      0.2763932023     -0.8506508084       0.08333333333
            -0.4472135955      0.7236067977     -0.5257311121       0.08333333333
    Maximum cutoff radius 1.31

  Adding pseudopotential for H
   Linear grid  ri=0 rf=10 npts = 10001
    ECPComponentBuilder::buildSemiLocalAndLocal 
    Assuming Hartree unit
    Only one vps is found. Set the local component=0
   Number of angular momentum channels 1
   Maximum angular momentum channel 0
   Creating a Linear Grid Rmax=1.17
  Using global grid with delta = 0.001
   Making L=0 a local potential with a radial cutoff of 9.999
  QMCHamiltonian::addOperator LocalECP to H, physical Hamiltonian 

  Using NonLocalECP potential 
    Maximum grid on a sphere for NonLocalECPotential: 12
  QMCHamiltonian::addOperator NonLocalECP to H, physical Hamiltonian 
QMCHamiltonian::addOperatorType added type pseudo named ELEMENT-ECP

  Distance table for similar particles (A-A):
    source/target: ion0
    Using structure-of-arrays (SoA) data layout
    Distance computations use open boundary conditions in 3D.

  QMCHamiltonian::addOperator IonIon to H, physical Hamiltonian 
QMCHamiltonian::addOperatorType added type coulomb named IonIon

  QMCHamiltonian::add2WalkerProperty added
    5 to P::PropertyList 
    0 to P::Collectables 
    starting Index of the observables in P::PropertyList = 9
<init source="ion0" target="e">
</init>
ParticleSetPool::randomize 
  Initialization Execution time = 1.55 secs
=========================================================
 Summary of QMC systems 
=========================================================
ParticleSetPool has: 

  ParticleSet e : 0 4 8 

    8

    u -5.9355815088e-01  2.9739719304e-01  2.8841921906e-01
    u  6.5089910882e-01 -2.8557135980e-01  1.3682603346e-01
    u -4.9937393569e-01  3.9984827193e-01  3.3865771307e-01
    u  4.3212685997e-01 -1.8204472494e+00  1.5384550572e+00
    d  9.8759484328e-02  5.7674352274e-01 -4.2609328563e-01
    d -2.3066518891e-01  2.8406970055e-01 -6.2453181719e-01
    d -2.0285646079e-01 -6.8234999300e-01  1.3110971820e-01
    d -1.1460335254e-01  1.3416345160e+00  3.9874935991e-01

  ParticleSet ion0 : 0 1 3 

    3

    O  0.0000000000e+00  0.0000000000e+00  0.0000000000e+00
    H  0.0000000000e+00 -1.4308249289e+00  1.1078707576e+00
    H  0.0000000000e+00  1.4308249289e+00  1.1078707576e+00

  Hamiltonian h0
  Kinetic         Kinetic energy
  ElecElec        CoulombAA source/target e

  LocalECP        LocalECPotential: ion0
  NonLocalECP     NonLocalECPotential: ion0
  IonIon          CoulombAA source/target ion0


=========================================================
  Start VMC
  File Root H2O.s001 append = no 
=========================================================
  Adding 4 walkers to 0 existing sets
  Total number of walkers: 8.7040000000e+03
  Total weight: 8.7040000000e+03
  Resetting Properties of the walkers 1 x 14

<vmc function="put">
  qmc_counter=0  my_counter=0
  time step      = 3.0000000000e-01
  blocks         = 1
  steps          = 64
  substeps       = 5
  current        = 0
  target samples = 5.5705600000e+05
  walkers/mpi    = 4

  stepsbetweensamples = 1
<parameter name="blocks" condition="int">1</parameter>
<parameter name="blocks_between_recompute" condition="int">0</parameter>
<parameter name="check_properties" condition="int">100</parameter>
<parameter name="checkproperties" condition="int">100</parameter>
<parameter name="current" condition="int">0</parameter>
<parameter name="dmcwalkersperthread" condition="real">6.4000000000e+01</parameter>
<parameter name="maxcpusecs" condition="real">3.6000000000e+05</parameter>
<parameter name="record_configs" condition="int">0</parameter>
<parameter name="record_walkers" condition="int">1</parameter>
<parameter name="recordconfigs" condition="int">0</parameter>
<parameter name="recordwalkers" condition="int">1</parameter>
<parameter name="rewind" condition="int">0</parameter>
<parameter name="samples" condition="real">5.5705600000e+05</parameter>
<parameter name="samplesperthread" condition="real">6.4000000000e+01</parameter>
<parameter name="steps" condition="int">64</parameter>
<parameter name="stepsbetweensamples" condition="int">1</parameter>
<parameter name="store_configs" condition="int">0</parameter>
<parameter name="storeconfigs" condition="int">0</parameter>
<parameter name="sub_steps" condition="int">5</parameter>
<parameter name="substeps" condition="int">5</parameter>
<parameter name="tau" condition="au">3.0000000000e-01</parameter>
<parameter name="time_step" condition="au">3.0000000000e-01</parameter>
<parameter name="timestep" condition="au">3.0000000000e-01</parameter>
<parameter name="use_drift" condition="string">no</parameter>
<parameter name="usedrift" condition="string">no</parameter>
<parameter name="walkers" condition="int">4</parameter>
<parameter name="warmup_steps" condition="int">100</parameter>
<parameter name="warmupsteps" condition="int">100</parameter>
  DumpConfig==false Nothing (configurations, state) will be saved.
  Walker Samples are dumped every 1 steps.
</vmc>
  CloneManager::makeClones makes 4 clones for W/Psi/H.
  Cloning methods for both Psi and H are used
===== Memory Usage before cloning =====
Available memory on node 0, free + buffers : 90767 MB
Memory footprint by rank 0 on node 0       : 57 MB
==================================================
===== Memory Usage after cloning =====
Available memory on node 0, free + buffers : 90639 MB
Memory footprint by rank 0 on node 0       : 60 MB
==================================================
  Initial partition of walkers 0 1 2 3 4 

  Using Particle by Particle moves
  Walker moves without drift
  Total Sample Size   =557056
  Walker distribution on root = 0 1 2 3 4 
  Using Locality Approximation
===== Memory Usage after the buffer registration =====
Available memory on node 0, free + buffers : 89257 MB
Memory footprint by rank 0 on node 0       : 80 MB
==================================================
  Anonymous Buffer size per walker : 2912 Bytes.
MEMORY increase 0 MB VMC::resetRun
====================================================
  SimpleFixedNodeBranch::finalize after a VMC block
    QMC counter        = 0
    time step          = 0.3
    reference energy   = -17.2477
    reference variance = 0.215451
====================================================
  QMC Execution time = 1.9346e+00 secs

=========================================================
  Start DMC
  File Root H2O.s002 append = no 
=========================================================
Using existing walkers 
  Resetting Properties of the walkers 1 x 14
  EstimatorManagerBase::add replace LocalEnergy estimator.
  Cannot make clones again. Use existing 4 clones
  Total number of walkers: 5.5706e+05
  Total weight: 5.5706e+05
  Creating WalkerController: target  number of walkers = 557056
  Using WalkerControlMPI for dynamic population control.
  START ALL OVER 
  WalkerControlBase parameters 
    maxCopy = 2
    Max Walkers per MPI rank 513
    Min Walkers per MPI rank 52
    Using non-blocking send/recv
  QMC counter      = 1
  time step        = 5.0000e-03
  effective time step = 5.0000e-03
  trial energy     = -1.7248e+01
  reference energy = -1.7248e+01
  Feedback = 1.0000e+00
  reference variance = 2.1545e-01
  target walkers = 557056
  branching cutoff scheme classic
  branch cutoff = 5.0000e+01 7.5000e+01
  Max and minimum walkers per node= 513 52
  QMC Status (BranchMode) = 0000001101
  Initial partition of walkers on a node: 0 64 128 192 256 
  Updates by particle-by-particle moves
  DMC moves are rejected when a node crossing is detected
  Using Non-local T-moves v0, M. Casula, PRB 74, 161102(R) (2006)
===== Memory Usage after the buffer registration =====
Available memory on node 0, free + buffers : 89200 MB
Memory footprint by rank 0 on node 0       : 81 MB
==================================================
SimpleFixedNodeBranch::checkParameters 
  Average Energy of a population  = -17.247
  Energy Variance = 0.235259

  Fluctuating population
  Persistent walkers are killed after 1 MC sweeps
  BranchInterval = 1
  Steps per block = 3
  Number of blocks = 100

  DMC Engine Initialization = 1.8177e-01 secs

 Warmup is completed after 100

  TauEff     = 4.9776e-03
 TauEff/Tau = 9.9551e-01
  Etrial     = -1.7250e+01
 Running average of energy = -1.7257e+01
                  Variance = 2.4298e-01
branch cutoff = 1.0000e+01 1.5000e+01
====================================================
  SimpleFixedNodeBranch::finalize after a DMC block
    QMC counter                   = 1
    time step                     = 0.005
    effective time step           = 0.00497757
    trial energy                  = -17.2607
    reference energy              = -17.2609
    reference variance            = 0.242981
    target walkers                = 557056
    branch cutoff                 = 10 15
    Max and minimum walkers per node= 513 52
    Feedback                      = 1
    QMC Status (BranchMode)       = 0000001111
====================================================
  QMC Execution time = 6.9498e+01 secs
  Total Execution time = 7.1459e+01 secs

=========================================================
  A new xml input file : H2O.s002.cont.xml
endTime:Mon Nov 30 16:14:19 PST 2020


