Starting..
====================
iteration 0
Starting job in nedd policy..
startTime:Sun Nov 15 01:26:13 PST 2020

LAMMPS (20 Apr 2018)
OMP_NUM_THREADS environment is not set. Defaulting to 1 thread. (../comm.cpp:90)
  using 1 OpenMP thread(s) per MPI task
Lattice spacing in x,y,z = 1.82574 1.82574 1.82574
Created orthogonal box = (0 0 -0.182574) to (73.0297 73.0297 0.182574)
  64 by 34 by 1 MPI processor grid
Created 3200 atoms
  Time spent = 0.00740218 secs
Neighbor list info ...
  update every 1 steps, delay 0 steps, check yes
  max neighbors/atom: 2000, page size: 100000
  master list distance cutoff = 2.8
  ghost atom cutoff = 2.8
  binsize = 1.4, bins = 53 53 1
  1 neighbor lists, perpetual/occasional/extra = 1 0 0
  (1) pair lj/cut, perpetual
      attributes: half, newton on
      pair build: half/bin/atomonly/newton
      stencil: half/bin/2d/newton
      bin: standard
Setting up Verlet run ...
  Unit style    : lj
  Current step  : 0
  Time step     : 0.005
Per MPI rank memory allocation (min/avg/max) = 2.702 | 2.797 | 2.952 Mbytes
Step Temp E_pair E_mol TotEng Press 
       0            1     -1.56492            0   -0.5652325   -1.5346995 
    1000    1.0063515   -1.5732592            0  -0.56722209    1.0061204 
    2000   0.95792094   -1.5781469            0  -0.62052531   0.96571772 
    3000   0.98401573    -1.588743            0  -0.60503472   0.97094222 
    4000   0.99740124   -1.5757024            0  -0.57861287   0.99998732 
    5000    1.0348886   -1.6022633            0  -0.56769811   0.97795086 
Loop time of 1.72708 on 2176 procs for 5000 steps with 3200 atoms

Performance: 1250663.730 tau/day, 2895.055 timesteps/s
97.1% CPU use with 2176 MPI tasks x 1 OpenMP threads

MPI task timing breakdown:
Section |  min time  |  avg time  |  max time  |%varavg| %total
---------------------------------------------------------------
Pair    | 0.012063   | 0.014584   | 0.01922    |   0.6 |  0.84
Neigh   | 0.0046611  | 0.0053996  | 0.0080755  |   0.6 |  0.31
Comm    | 0.61074    | 0.71939    | 0.92137    |   6.6 | 41.65
Output  | 0.0065169  | 0.0070769  | 0.0073628  |   0.2 |  0.41
Modify  | 0.030731   | 0.033307   | 0.041802   |   0.6 |  1.93
Other   |            | 0.9473     |            |       | 54.85

Nlocal:    1.47059 ave 4 max 0 min
Histogram: 156 0 945 0 0 972 0 101 0 2
Nghost:    29.7891 ave 39 max 22 min
Histogram: 19 78 286 246 701 556 148 126 15 1
Neighs:    10.324 ave 33 max 0 min
Histogram: 178 392 523 392 399 200 61 27 1 3

Total # of neighbors = 22465
Ave neighs/atom = 7.02031
Neighbor list builds = 601
Dangerous builds = 0
Setting up Verlet run ...
  Unit style    : lj
  Current step  : 0
  Time step     : 0.005
Per MPI rank memory allocation (min/avg/max) = 3.327 | 3.327 | 3.327 Mbytes
Step Temp c_vacf[4] v_vacf 
       0    1.0348886    2.0691304            0 
    5000      1.01618  0.010970342    0.3062452 
   10000    1.0210865 0.0018251732    0.3939561 
   15000    1.0201407 -0.0051204578   0.50191967 
   20000    1.0169872  0.032935727   0.54134779 
   25000    1.0117798  -0.01580966     0.615112 
   30000    1.0284167 -0.0089673686   0.71447644 
   35000    1.0072394 -0.027346896   0.70401385 
   40000    1.0180797 -0.024551015   0.74660961 
   45000    1.0221593 -0.0059135592   0.75865906 
   50000    1.0150177  -0.04225538   0.87981449 
   55000    1.0190131 -0.039301263   0.91325887 
   60000    1.0153908  0.068561184   0.90266577 
Loop time of 54.083 on 2176 procs for 60000 steps with 3200 atoms

Performance: 479263.748 tau/day, 1109.407 timesteps/s
98.7% CPU use with 2176 MPI tasks x 1 OpenMP threads

MPI task timing breakdown:
Section |  min time  |  avg time  |  max time  |%varavg| %total
---------------------------------------------------------------
Pair    | 0.16555    | 0.17569    | 0.2456     |   2.0 |  0.32
Neigh   | 0.064928   | 0.070378   | 0.10593    |   2.2 |  0.13
Comm    | 13.163     | 15.866     | 21.742     |  42.1 | 29.34
Output  | 0.010314   | 0.01058    | 0.01156    |   0.1 |  0.02
Modify  | 23.895     | 29.77      | 32.465     |  30.7 | 55.04
Other   |            | 8.191      |            |       | 15.15

Nlocal:    1.47059 ave 4 max 0 min
Histogram: 157 0 936 0 0 987 0 94 0 2
Nghost:    29.9081 ave 38 max 20 min
Histogram: 9 24 120 260 239 579 567 278 84 16
Neighs:    10.284 ave 33 max 0 min
Histogram: 171 403 492 438 388 205 50 19 8 2

Total # of neighbors = 22378
Ave neighs/atom = 6.99313
Neighbor list builds = 7770
Dangerous builds = 0
Total wall time: 0:00:55
endTime:Sun Nov 15 01:27:58 PST 2020


Starting job in lowerRouterStall policy..
startTime:Sun Nov 15 01:27:58 PST 2020

LAMMPS (20 Apr 2018)
OMP_NUM_THREADS environment is not set. Defaulting to 1 thread. (../comm.cpp:90)
  using 1 OpenMP thread(s) per MPI task
Lattice spacing in x,y,z = 1.82574 1.82574 1.82574
Created orthogonal box = (0 0 -0.182574) to (73.0297 73.0297 0.182574)
  64 by 34 by 1 MPI processor grid
Created 3200 atoms
  Time spent = 0.00754094 secs
Neighbor list info ...
  update every 1 steps, delay 0 steps, check yes
  max neighbors/atom: 2000, page size: 100000
  master list distance cutoff = 2.8
  ghost atom cutoff = 2.8
  binsize = 1.4, bins = 53 53 1
  1 neighbor lists, perpetual/occasional/extra = 1 0 0
  (1) pair lj/cut, perpetual
      attributes: half, newton on
      pair build: half/bin/atomonly/newton
      stencil: half/bin/2d/newton
      bin: standard
Setting up Verlet run ...
  Unit style    : lj
  Current step  : 0
  Time step     : 0.005
Per MPI rank memory allocation (min/avg/max) = 2.702 | 2.797 | 2.952 Mbytes
Step Temp E_pair E_mol TotEng Press 
       0            1     -1.56492            0   -0.5652325   -1.5346995 
    1000    1.0063515   -1.5732592            0  -0.56722209    1.0061204 
    2000   0.95792094   -1.5781469            0  -0.62052531   0.96571772 
    3000   0.98401573    -1.588743            0  -0.60503472   0.97094222 
    4000   0.99740124   -1.5757024            0  -0.57861287   0.99998732 
    5000    1.0348886   -1.6022633            0  -0.56769811   0.97795086 
Loop time of 4.0763 on 2176 procs for 5000 steps with 3200 atoms

Performance: 529892.810 tau/day, 1226.604 timesteps/s
98.5% CPU use with 2176 MPI tasks x 1 OpenMP threads

MPI task timing breakdown:
Section |  min time  |  avg time  |  max time  |%varavg| %total
---------------------------------------------------------------
Pair    | 0.01213    | 0.014667   | 0.021697   |   0.8 |  0.36
Neigh   | 0.0047064  | 0.0054758  | 0.0082779  |   0.6 |  0.13
Comm    | 0.97495    | 1.3143     | 1.7937     |  13.6 | 32.24
Output  | 0.0035942  | 0.0043196  | 0.0046237  |   0.3 |  0.11
Modify  | 0.030893   | 0.033583   | 0.046873   |   1.0 |  0.82
Other   |            | 2.704      |            |       | 66.33

Nlocal:    1.47059 ave 4 max 0 min
Histogram: 156 0 945 0 0 972 0 101 0 2
Nghost:    29.7891 ave 39 max 22 min
Histogram: 19 78 286 246 701 556 148 126 15 1
Neighs:    10.324 ave 33 max 0 min
Histogram: 178 392 523 392 399 200 61 27 1 3

Total # of neighbors = 22465
Ave neighs/atom = 7.02031
Neighbor list builds = 601
Dangerous builds = 0
Setting up Verlet run ...
  Unit style    : lj
  Current step  : 0
  Time step     : 0.005
Per MPI rank memory allocation (min/avg/max) = 3.327 | 3.327 | 3.327 Mbytes
Step Temp c_vacf[4] v_vacf 
       0    1.0348886    2.0691304            0 
    5000      1.01618  0.010970342    0.3062452 
   10000    1.0210865 0.0018251732    0.3939561 
   15000    1.0201407 -0.0051204578   0.50191967 
   20000    1.0169872  0.032935727   0.54134779 
   25000    1.0117798  -0.01580966     0.615112 
   30000    1.0284167 -0.0089673686   0.71447644 
   35000    1.0072394 -0.027346896   0.70401385 
   40000    1.0180797 -0.024551015   0.74660961 
   45000    1.0221593 -0.0059135592   0.75865906 
   50000    1.0150177  -0.04225538   0.87981449 
   55000    1.0190131 -0.039301263   0.91325887 
   60000    1.0153908  0.068561184   0.90266577 
Loop time of 38.7962 on 2176 procs for 60000 steps with 3200 atoms

Performance: 668106.416 tau/day, 1546.543 timesteps/s
98.4% CPU use with 2176 MPI tasks x 1 OpenMP threads

MPI task timing breakdown:
Section |  min time  |  avg time  |  max time  |%varavg| %total
---------------------------------------------------------------
Pair    | 0.16472    | 0.17525    | 0.24186    |   1.8 |  0.45
Neigh   | 0.064817   | 0.069846   | 0.10599    |   2.1 |  0.18
Comm    | 8.2559     | 9.3991     | 11.234     |  17.5 | 24.23
Output  | 0.011436   | 0.012147   | 0.013393   |   0.4 |  0.03
Modify  | 19.24      | 21.092     | 22.262     |  11.7 | 54.37
Other   |            | 8.048      |            |       | 20.74

Nlocal:    1.47059 ave 4 max 0 min
Histogram: 157 0 936 0 0 987 0 94 0 2
Nghost:    29.9081 ave 38 max 20 min
Histogram: 9 24 120 260 239 579 567 278 84 16
Neighs:    10.284 ave 33 max 0 min
Histogram: 171 403 492 438 388 205 50 19 8 2

Total # of neighbors = 22378
Ave neighs/atom = 6.99313
Neighbor list builds = 7770
Dangerous builds = 0
Total wall time: 0:00:43
endTime:Sun Nov 15 01:28:51 PST 2020


Starting job in fewerSwitch policy..
startTime:Sun Nov 15 01:28:51 PST 2020

LAMMPS (20 Apr 2018)
OMP_NUM_THREADS environment is not set. Defaulting to 1 thread. (../comm.cpp:90)
  using 1 OpenMP thread(s) per MPI task
Lattice spacing in x,y,z = 1.82574 1.82574 1.82574
Created orthogonal box = (0 0 -0.182574) to (73.0297 73.0297 0.182574)
  64 by 34 by 1 MPI processor grid
Created 3200 atoms
  Time spent = 0.012609 secs
Neighbor list info ...
  update every 1 steps, delay 0 steps, check yes
  max neighbors/atom: 2000, page size: 100000
  master list distance cutoff = 2.8
  ghost atom cutoff = 2.8
  binsize = 1.4, bins = 53 53 1
  1 neighbor lists, perpetual/occasional/extra = 1 0 0
  (1) pair lj/cut, perpetual
      attributes: half, newton on
      pair build: half/bin/atomonly/newton
      stencil: half/bin/2d/newton
      bin: standard
Setting up Verlet run ...
  Unit style    : lj
  Current step  : 0
  Time step     : 0.005
Per MPI rank memory allocation (min/avg/max) = 2.702 | 2.797 | 2.952 Mbytes
Step Temp E_pair E_mol TotEng Press 
       0            1     -1.56492            0   -0.5652325   -1.5346995 
    1000    1.0063515   -1.5732592            0  -0.56722209    1.0061204 
    2000   0.95792094   -1.5781469            0  -0.62052531   0.96571772 
    3000   0.98401573    -1.588743            0  -0.60503472   0.97094222 
    4000   0.99740124   -1.5757024            0  -0.57861287   0.99998732 
    5000    1.0348886   -1.6022633            0  -0.56769811   0.97795086 
Loop time of 2.84985 on 2176 procs for 5000 steps with 3200 atoms

Performance: 757934.622 tau/day, 1754.478 timesteps/s
98.0% CPU use with 2176 MPI tasks x 1 OpenMP threads

MPI task timing breakdown:
Section |  min time  |  avg time  |  max time  |%varavg| %total
---------------------------------------------------------------
Pair    | 0.012197   | 0.014532   | 0.020172   |   0.7 |  0.51
Neigh   | 0.0047226  | 0.0054382  | 0.0081878  |   0.6 |  0.19
Comm    | 0.79253    | 0.98269    | 1.2322     |   8.2 | 34.48
Output  | 0.0028844  | 0.0031326  | 0.0033071  |   0.1 |  0.11
Modify  | 0.030919   | 0.033517   | 0.045861   |   0.8 |  1.18
Other   |            | 1.811      |            |       | 63.53

Nlocal:    1.47059 ave 4 max 0 min
Histogram: 156 0 945 0 0 972 0 101 0 2
Nghost:    29.7891 ave 39 max 22 min
Histogram: 19 78 286 246 701 556 148 126 15 1
Neighs:    10.324 ave 33 max 0 min
Histogram: 178 392 523 392 399 200 61 27 1 3

Total # of neighbors = 22465
Ave neighs/atom = 7.02031
Neighbor list builds = 601
Dangerous builds = 0
Setting up Verlet run ...
  Unit style    : lj
  Current step  : 0
  Time step     : 0.005
Per MPI rank memory allocation (min/avg/max) = 3.327 | 3.327 | 3.327 Mbytes
Step Temp c_vacf[4] v_vacf 
       0    1.0348886    2.0691304            0 
    5000      1.01618  0.010970342    0.3062452 
   10000    1.0210865 0.0018251732    0.3939561 
   15000    1.0201407 -0.0051204578   0.50191967 
   20000    1.0169872  0.032935727   0.54134779 
   25000    1.0117798  -0.01580966     0.615112 
   30000    1.0284167 -0.0089673686   0.71447644 
   35000    1.0072394 -0.027346896   0.70401385 
   40000    1.0180797 -0.024551015   0.74660961 
   45000    1.0221593 -0.0059135592   0.75865906 
   50000    1.0150177  -0.04225538   0.87981449 
   55000    1.0190131 -0.039301263   0.91325887 
   60000    1.0153908  0.068561184   0.90266577 
Loop time of 43.7302 on 2176 procs for 60000 steps with 3200 atoms

Performance: 592725.527 tau/day, 1372.050 timesteps/s
98.5% CPU use with 2176 MPI tasks x 1 OpenMP threads

MPI task timing breakdown:
Section |  min time  |  avg time  |  max time  |%varavg| %total
---------------------------------------------------------------
Pair    | 0.16594    | 0.17461    | 0.25215    |   2.1 |  0.40
Neigh   | 0.064342   | 0.070147   | 0.10641    |   2.2 |  0.16
Comm    | 8.8414     | 10.136     | 12.481     |  21.1 | 23.18
Output  | 0.010498   | 0.010773   | 0.011664   |   0.1 |  0.02
Modify  | 21.551     | 23.942     | 25.256     |  14.1 | 54.75
Other   |            | 9.396      |            |       | 21.49

Nlocal:    1.47059 ave 4 max 0 min
Histogram: 157 0 936 0 0 987 0 94 0 2
Nghost:    29.9081 ave 38 max 20 min
Histogram: 9 24 120 260 239 579 567 278 84 16
Neighs:    10.284 ave 33 max 0 min
Histogram: 171 403 492 438 388 205 50 19 8 2

Total # of neighbors = 22378
Ave neighs/atom = 6.99313
Neighbor list builds = 7770
Dangerous builds = 0
Total wall time: 0:00:46
endTime:Sun Nov 15 01:29:46 PST 2020


Starting job in random policy..
startTime:Sun Nov 15 01:29:46 PST 2020

LAMMPS (20 Apr 2018)
OMP_NUM_THREADS environment is not set. Defaulting to 1 thread. (../comm.cpp:90)
  using 1 OpenMP thread(s) per MPI task
Lattice spacing in x,y,z = 1.82574 1.82574 1.82574
Created orthogonal box = (0 0 -0.182574) to (73.0297 73.0297 0.182574)
  64 by 34 by 1 MPI processor grid
Created 3200 atoms
  Time spent = 0.01442 secs
Neighbor list info ...
  update every 1 steps, delay 0 steps, check yes
  max neighbors/atom: 2000, page size: 100000
  master list distance cutoff = 2.8
  ghost atom cutoff = 2.8
  binsize = 1.4, bins = 53 53 1
  1 neighbor lists, perpetual/occasional/extra = 1 0 0
  (1) pair lj/cut, perpetual
      attributes: half, newton on
      pair build: half/bin/atomonly/newton
      stencil: half/bin/2d/newton
      bin: standard
Setting up Verlet run ...
  Unit style    : lj
  Current step  : 0
  Time step     : 0.005
Per MPI rank memory allocation (min/avg/max) = 2.702 | 2.797 | 2.952 Mbytes
Step Temp E_pair E_mol TotEng Press 
       0            1     -1.56492            0   -0.5652325   -1.5346995 
    1000    1.0063515   -1.5732592            0  -0.56722209    1.0061204 
    2000   0.95792094   -1.5781469            0  -0.62052531   0.96571772 
    3000   0.98401573    -1.588743            0  -0.60503472   0.97094222 
    4000   0.99740124   -1.5757024            0  -0.57861287   0.99998732 
    5000    1.0348886   -1.6022633            0  -0.56769811   0.97795086 
Loop time of 3.47164 on 2176 procs for 5000 steps with 3200 atoms

Performance: 622185.017 tau/day, 1440.243 timesteps/s
98.4% CPU use with 2176 MPI tasks x 1 OpenMP threads

MPI task timing breakdown:
Section |  min time  |  avg time  |  max time  |%varavg| %total
---------------------------------------------------------------
Pair    | 0.012077   | 0.014587   | 0.02298    |   0.7 |  0.42
Neigh   | 0.0048013  | 0.0054821  | 0.0088253  |   0.6 |  0.16
Comm    | 0.83571    | 1.1286     | 1.5723     |  15.7 | 32.51
Output  | 0.0058208  | 0.0070296  | 0.009959   |   1.0 |  0.20
Modify  | 0.030933   | 0.033598   | 0.044946   |   0.9 |  0.97
Other   |            | 2.282      |            |       | 65.74

Nlocal:    1.47059 ave 4 max 0 min
Histogram: 156 0 945 0 0 972 0 101 0 2
Nghost:    29.7891 ave 39 max 22 min
Histogram: 19 78 286 246 701 556 148 126 15 1
Neighs:    10.324 ave 33 max 0 min
Histogram: 178 392 523 392 399 200 61 27 1 3

Total # of neighbors = 22465
Ave neighs/atom = 7.02031
Neighbor list builds = 601
Dangerous builds = 0
Setting up Verlet run ...
  Unit style    : lj
  Current step  : 0
  Time step     : 0.005
Per MPI rank memory allocation (min/avg/max) = 3.327 | 3.327 | 3.327 Mbytes
Step Temp c_vacf[4] v_vacf 
       0    1.0348886    2.0691304            0 
    5000      1.01618  0.010970342    0.3062452 
   10000    1.0210865 0.0018251732    0.3939561 
   15000    1.0201407 -0.0051204578   0.50191967 
   20000    1.0169872  0.032935727   0.54134779 
   25000    1.0117798  -0.01580966     0.615112 
   30000    1.0284167 -0.0089673686   0.71447644 
   35000    1.0072394 -0.027346896   0.70401385 
   40000    1.0180797 -0.024551015   0.74660961 
   45000    1.0221593 -0.0059135592   0.75865906 
   50000    1.0150177  -0.04225538   0.87981449 
   55000    1.0190131 -0.039301263   0.91325887 
   60000    1.0153908  0.068561184   0.90266577 
Loop time of 37.1118 on 2176 procs for 60000 steps with 3200 atoms

Performance: 698429.415 tau/day, 1616.735 timesteps/s
98.3% CPU use with 2176 MPI tasks x 1 OpenMP threads

MPI task timing breakdown:
Section |  min time  |  avg time  |  max time  |%varavg| %total
---------------------------------------------------------------
Pair    | 0.16561    | 0.17469    | 0.2658     |   2.0 |  0.47
Neigh   | 0.06432    | 0.070253   | 0.11315    |   2.2 |  0.19
Comm    | 8.1623     | 9.3577     | 11.135     |  19.5 | 25.21
Output  | 0.010785   | 0.011016   | 0.012052   |   0.1 |  0.03
Modify  | 18.088     | 19.878     | 21.093     |  13.7 | 53.56
Other   |            | 7.62       |            |       | 20.53

Nlocal:    1.47059 ave 4 max 0 min
Histogram: 157 0 936 0 0 987 0 94 0 2
Nghost:    29.9081 ave 38 max 20 min
Histogram: 9 24 120 260 239 579 567 278 84 16
Neighs:    10.284 ave 33 max 0 min
Histogram: 171 403 492 438 388 205 50 19 8 2

Total # of neighbors = 22378
Ave neighs/atom = 6.99313
Neighbor list builds = 7770
Dangerous builds = 0
Total wall time: 0:00:40
endTime:Sun Nov 15 01:30:36 PST 2020


Starting job in antinedd policy..
startTime:Sun Nov 15 01:30:36 PST 2020

LAMMPS (20 Apr 2018)
OMP_NUM_THREADS environment is not set. Defaulting to 1 thread. (../comm.cpp:90)
  using 1 OpenMP thread(s) per MPI task
Lattice spacing in x,y,z = 1.82574 1.82574 1.82574
Created orthogonal box = (0 0 -0.182574) to (73.0297 73.0297 0.182574)
  64 by 34 by 1 MPI processor grid
Created 3200 atoms
  Time spent = 0.00899696 secs
Neighbor list info ...
  update every 1 steps, delay 0 steps, check yes
  max neighbors/atom: 2000, page size: 100000
  master list distance cutoff = 2.8
  ghost atom cutoff = 2.8
  binsize = 1.4, bins = 53 53 1
  1 neighbor lists, perpetual/occasional/extra = 1 0 0
  (1) pair lj/cut, perpetual
      attributes: half, newton on
      pair build: half/bin/atomonly/newton
      stencil: half/bin/2d/newton
      bin: standard
Setting up Verlet run ...
  Unit style    : lj
  Current step  : 0
  Time step     : 0.005
Per MPI rank memory allocation (min/avg/max) = 2.702 | 2.797 | 2.952 Mbytes
Step Temp E_pair E_mol TotEng Press 
       0            1     -1.56492            0   -0.5652325   -1.5346995 
    1000    1.0063515   -1.5732592            0  -0.56722209    1.0061204 
    2000   0.95792094   -1.5781469            0  -0.62052531   0.96571772 
    3000   0.98401573    -1.588743            0  -0.60503472   0.97094222 
    4000   0.99740124   -1.5757024            0  -0.57861287   0.99998732 
    5000    1.0348886   -1.6022633            0  -0.56769811   0.97795086 
Loop time of 5.41668 on 2176 procs for 5000 steps with 3200 atoms

Performance: 398768.330 tau/day, 923.075 timesteps/s
98.8% CPU use with 2176 MPI tasks x 1 OpenMP threads

MPI task timing breakdown:
Section |  min time  |  avg time  |  max time  |%varavg| %total
---------------------------------------------------------------
Pair    | 0.012034   | 0.014645   | 0.023174   |   0.9 |  0.27
Neigh   | 0.0047596  | 0.0055188  | 0.008812   |   0.7 |  0.10
Comm    | 1.3375     | 1.9108     | 2.5972     |  23.9 | 35.28
Output  | 0.0089941  | 0.012781   | 0.015086   |   1.5 |  0.24
Modify  | 0.030599   | 0.033816   | 0.048755   |   1.1 |  0.62
Other   |            | 3.439      |            |       | 63.49

Nlocal:    1.47059 ave 4 max 0 min
Histogram: 156 0 945 0 0 972 0 101 0 2
Nghost:    29.7891 ave 39 max 22 min
Histogram: 19 78 286 246 701 556 148 126 15 1
Neighs:    10.324 ave 33 max 0 min
Histogram: 178 392 523 392 399 200 61 27 1 3

Total # of neighbors = 22465
Ave neighs/atom = 7.02031
Neighbor list builds = 601
Dangerous builds = 0
Setting up Verlet run ...
  Unit style    : lj
  Current step  : 0
  Time step     : 0.005
Per MPI rank memory allocation (min/avg/max) = 3.327 | 3.327 | 3.327 Mbytes
Step Temp c_vacf[4] v_vacf 
       0    1.0348886    2.0691304            0 
    5000      1.01618  0.010970342    0.3062452 
   10000    1.0210865 0.0018251732    0.3939561 
   15000    1.0201407 -0.0051204578   0.50191967 
   20000    1.0169872  0.032935727   0.54134779 
   25000    1.0117798  -0.01580966     0.615112 
   30000    1.0284167 -0.0089673686   0.71447644 
   35000    1.0072394 -0.027346896   0.70401385 
   40000    1.0180797 -0.024551015   0.74660961 
   45000    1.0221593 -0.0059135592   0.75865906 
   50000    1.0150177  -0.04225538   0.87981449 
   55000    1.0190131 -0.039301263   0.91325887 
   60000    1.0153908  0.068561184   0.90266577 
Loop time of 54.1105 on 2176 procs for 60000 steps with 3200 atoms

Performance: 479020.117 tau/day, 1108.843 timesteps/s
98.8% CPU use with 2176 MPI tasks x 1 OpenMP threads

MPI task timing breakdown:
Section |  min time  |  avg time  |  max time  |%varavg| %total
---------------------------------------------------------------
Pair    | 0.16542    | 0.17496    | 0.25782    |   2.3 |  0.32
Neigh   | 0.065142   | 0.070443   | 0.10691    |   2.2 |  0.13
Comm    | 9.8775     | 11.985     | 15.671     |  31.8 | 22.15
Output  | 0.011549   | 0.011862   | 0.012779   |   0.1 |  0.02
Modify  | 26.674     | 30.393     | 32.524     |  20.3 | 56.17
Other   |            | 11.48      |            |       | 21.21

Nlocal:    1.47059 ave 4 max 0 min
Histogram: 157 0 936 0 0 987 0 94 0 2
Nghost:    29.9081 ave 38 max 20 min
Histogram: 9 24 120 260 239 579 567 278 84 16
Neighs:    10.284 ave 33 max 0 min
Histogram: 171 403 492 438 388 205 50 19 8 2

Total # of neighbors = 22378
Ave neighs/atom = 6.99313
Neighbor list builds = 7770
Dangerous builds = 0
Total wall time: 0:00:59
endTime:Sun Nov 15 01:32:09 PST 2020


Starting job in neddNoCong policy..
startTime:Sun Nov 15 01:32:14 PST 2020

LAMMPS (20 Apr 2018)
OMP_NUM_THREADS environment is not set. Defaulting to 1 thread. (../comm.cpp:90)
  using 1 OpenMP thread(s) per MPI task
Lattice spacing in x,y,z = 1.82574 1.82574 1.82574
Created orthogonal box = (0 0 -0.182574) to (73.0297 73.0297 0.182574)
  64 by 34 by 1 MPI processor grid
Created 3200 atoms
  Time spent = 0.00850081 secs
Neighbor list info ...
  update every 1 steps, delay 0 steps, check yes
  max neighbors/atom: 2000, page size: 100000
  master list distance cutoff = 2.8
  ghost atom cutoff = 2.8
  binsize = 1.4, bins = 53 53 1
  1 neighbor lists, perpetual/occasional/extra = 1 0 0
  (1) pair lj/cut, perpetual
      attributes: half, newton on
      pair build: half/bin/atomonly/newton
      stencil: half/bin/2d/newton
      bin: standard
Setting up Verlet run ...
  Unit style    : lj
  Current step  : 0
  Time step     : 0.005
Per MPI rank memory allocation (min/avg/max) = 2.702 | 2.797 | 2.952 Mbytes
Step Temp E_pair E_mol TotEng Press 
       0            1     -1.56492            0   -0.5652325   -1.5346995 
    1000    1.0063515   -1.5732592            0  -0.56722209    1.0061204 
    2000   0.95792094   -1.5781469            0  -0.62052531   0.96571772 
    3000   0.98401573    -1.588743            0  -0.60503472   0.97094222 
    4000   0.99740124   -1.5757024            0  -0.57861287   0.99998732 
    5000    1.0348886   -1.6022633            0  -0.56769811   0.97795086 
Loop time of 1.85023 on 2176 procs for 5000 steps with 3200 atoms

Performance: 1167420.425 tau/day, 2702.362 timesteps/s
97.2% CPU use with 2176 MPI tasks x 1 OpenMP threads

MPI task timing breakdown:
Section |  min time  |  avg time  |  max time  |%varavg| %total
---------------------------------------------------------------
Pair    | 0.011888   | 0.014497   | 0.019152   |   0.6 |  0.78
Neigh   | 0.0047131  | 0.0053962  | 0.0080616  |   0.6 |  0.29
Comm    | 0.61963    | 0.75512    | 0.90114    |   6.0 | 40.81
Output  | 0.0030131  | 0.0032738  | 0.0034151  |   0.1 |  0.18
Modify  | 0.030902   | 0.033401   | 0.041302   |   0.6 |  1.81
Other   |            | 1.039      |            |       | 56.13

Nlocal:    1.47059 ave 4 max 0 min
Histogram: 156 0 945 0 0 972 0 101 0 2
Nghost:    29.7891 ave 39 max 22 min
Histogram: 19 78 286 246 701 556 148 126 15 1
Neighs:    10.324 ave 33 max 0 min
Histogram: 178 392 523 392 399 200 61 27 1 3

Total # of neighbors = 22465
Ave neighs/atom = 7.02031
Neighbor list builds = 601
Dangerous builds = 0
Setting up Verlet run ...
  Unit style    : lj
  Current step  : 0
  Time step     : 0.005
Per MPI rank memory allocation (min/avg/max) = 3.327 | 3.327 | 3.327 Mbytes
Step Temp c_vacf[4] v_vacf 
       0    1.0348886    2.0691304            0 
    5000      1.01618  0.010970342    0.3062452 
   10000    1.0210865 0.0018251732    0.3939561 
   15000    1.0201407 -0.0051204578   0.50191967 
   20000    1.0169872  0.032935727   0.54134779 
   25000    1.0117798  -0.01580966     0.615112 
   30000    1.0284167 -0.0089673686   0.71447644 
   35000    1.0072394 -0.027346896   0.70401385 
   40000    1.0180797 -0.024551015   0.74660961 
   45000    1.0221593 -0.0059135592   0.75865906 
   50000    1.0150177  -0.04225538   0.87981449 
   55000    1.0190131 -0.039301263   0.91325887 
   60000    1.0153908  0.068561184   0.90266577 
Loop time of 44.0726 on 2176 procs for 60000 steps with 3200 atoms

Performance: 588120.036 tau/day, 1361.389 timesteps/s
98.5% CPU use with 2176 MPI tasks x 1 OpenMP threads

MPI task timing breakdown:
Section |  min time  |  avg time  |  max time  |%varavg| %total
---------------------------------------------------------------
Pair    | 0.16521    | 0.17474    | 0.24572    |   2.0 |  0.40
Neigh   | 0.064748   | 0.070346   | 0.10715    |   2.2 |  0.16
Comm    | 8.3167     | 10.272     | 12.905     |  26.0 | 23.31
Output  | 0.011168   | 0.011541   | 0.012372   |   0.1 |  0.03
Modify  | 21.645     | 24.311     | 26.288     |  17.1 | 55.16
Other   |            | 9.233      |            |       | 20.95

Nlocal:    1.47059 ave 4 max 0 min
Histogram: 157 0 936 0 0 987 0 94 0 2
Nghost:    29.9081 ave 38 max 20 min
Histogram: 9 24 120 260 239 579 567 278 84 16
Neighs:    10.284 ave 33 max 0 min
Histogram: 171 403 492 438 388 205 50 19 8 2

Total # of neighbors = 22378
Ave neighs/atom = 6.99313
Neighbor list builds = 7770
Dangerous builds = 0
Total wall time: 0:00:46
endTime:Sun Nov 15 01:33:12 PST 2020


Starting job in fewerNoCong policy..
startTime:Sun Nov 15 01:33:12 PST 2020

LAMMPS (20 Apr 2018)
OMP_NUM_THREADS environment is not set. Defaulting to 1 thread. (../comm.cpp:90)
  using 1 OpenMP thread(s) per MPI task
Lattice spacing in x,y,z = 1.82574 1.82574 1.82574
Created orthogonal box = (0 0 -0.182574) to (73.0297 73.0297 0.182574)
  64 by 34 by 1 MPI processor grid
Created 3200 atoms
  Time spent = 0.011476 secs
Neighbor list info ...
  update every 1 steps, delay 0 steps, check yes
  max neighbors/atom: 2000, page size: 100000
  master list distance cutoff = 2.8
  ghost atom cutoff = 2.8
  binsize = 1.4, bins = 53 53 1
  1 neighbor lists, perpetual/occasional/extra = 1 0 0
  (1) pair lj/cut, perpetual
      attributes: half, newton on
      pair build: half/bin/atomonly/newton
      stencil: half/bin/2d/newton
      bin: standard
Setting up Verlet run ...
  Unit style    : lj
  Current step  : 0
  Time step     : 0.005
Per MPI rank memory allocation (min/avg/max) = 2.702 | 2.797 | 2.952 Mbytes
Step Temp E_pair E_mol TotEng Press 
       0            1     -1.56492            0   -0.5652325   -1.5346995 
    1000    1.0063515   -1.5732592            0  -0.56722209    1.0061204 
    2000   0.95792094   -1.5781469            0  -0.62052531   0.96571772 
    3000   0.98401573    -1.588743            0  -0.60503472   0.97094222 
    4000   0.99740124   -1.5757024            0  -0.57861287   0.99998732 
    5000    1.0348886   -1.6022633            0  -0.56769811   0.97795086 
Loop time of 2.02101 on 2176 procs for 5000 steps with 3200 atoms

Performance: 1068774.197 tau/day, 2474.014 timesteps/s
97.5% CPU use with 2176 MPI tasks x 1 OpenMP threads

MPI task timing breakdown:
Section |  min time  |  avg time  |  max time  |%varavg| %total
---------------------------------------------------------------
Pair    | 0.012008   | 0.014501   | 0.021646   |   0.6 |  0.72
Neigh   | 0.0047231  | 0.0054025  | 0.0081887  |   0.6 |  0.27
Comm    | 0.64631    | 0.79255    | 1.0193     |   7.3 | 39.22
Output  | 0.003201   | 0.0034248  | 0.0036309  |   0.1 |  0.17
Modify  | 0.030988   | 0.033399   | 0.042419   |   0.6 |  1.65
Other   |            | 1.172      |            |       | 57.98

Nlocal:    1.47059 ave 4 max 0 min
Histogram: 156 0 945 0 0 972 0 101 0 2
Nghost:    29.7891 ave 39 max 22 min
Histogram: 19 78 286 246 701 556 148 126 15 1
Neighs:    10.324 ave 33 max 0 min
Histogram: 178 392 523 392 399 200 61 27 1 3

Total # of neighbors = 22465
Ave neighs/atom = 7.02031
Neighbor list builds = 601
Dangerous builds = 0
Setting up Verlet run ...
  Unit style    : lj
  Current step  : 0
  Time step     : 0.005
Per MPI rank memory allocation (min/avg/max) = 3.327 | 3.327 | 3.327 Mbytes
Step Temp c_vacf[4] v_vacf 
       0    1.0348886    2.0691304            0 
    5000      1.01618  0.010970342    0.3062452 
   10000    1.0210865 0.0018251732    0.3939561 
   15000    1.0201407 -0.0051204578   0.50191967 
   20000    1.0169872  0.032935727   0.54134779 
   25000    1.0117798  -0.01580966     0.615112 
   30000    1.0284167 -0.0089673686   0.71447644 
   35000    1.0072394 -0.027346896   0.70401385 
   40000    1.0180797 -0.024551015   0.74660961 
   45000    1.0221593 -0.0059135592   0.75865906 
   50000    1.0150177  -0.04225538   0.87981449 
   55000    1.0190131 -0.039301263   0.91325887 
   60000    1.0153908  0.068561184   0.90266577 
Loop time of 42.9026 on 2176 procs for 60000 steps with 3200 atoms

Performance: 604158.558 tau/day, 1398.515 timesteps/s
98.5% CPU use with 2176 MPI tasks x 1 OpenMP threads

MPI task timing breakdown:
Section |  min time  |  avg time  |  max time  |%varavg| %total
---------------------------------------------------------------
Pair    | 0.1653     | 0.17461    | 0.26953    |   2.1 |  0.41
Neigh   | 0.065192   | 0.07008    | 0.10601    |   2.2 |  0.16
Comm    | 8.2977     | 10.066     | 12.855     |  25.5 | 23.46
Output  | 0.011948   | 0.012329   | 0.013307   |   0.1 |  0.03
Modify  | 20.821     | 23.596     | 25.373     |  16.8 | 55.00
Other   |            | 8.984      |            |       | 20.94

Nlocal:    1.47059 ave 4 max 0 min
Histogram: 157 0 936 0 0 987 0 94 0 2
Nghost:    29.9081 ave 38 max 20 min
Histogram: 9 24 120 260 239 579 567 278 84 16
Neighs:    10.284 ave 33 max 0 min
Histogram: 171 403 492 438 388 205 50 19 8 2

Total # of neighbors = 22378
Ave neighs/atom = 6.99313
Neighbor list builds = 7770
Dangerous builds = 0
Total wall time: 0:00:45
endTime:Sun Nov 15 01:34:08 PST 2020


====================
iteration 1
Starting job in nedd policy..
startTime:Sun Nov 15 01:36:36 PST 2020

LAMMPS (20 Apr 2018)
OMP_NUM_THREADS environment is not set. Defaulting to 1 thread. (../comm.cpp:90)
  using 1 OpenMP thread(s) per MPI task
Lattice spacing in x,y,z = 1.82574 1.82574 1.82574
Created orthogonal box = (0 0 -0.182574) to (73.0297 73.0297 0.182574)
  64 by 34 by 1 MPI processor grid
Created 3200 atoms
  Time spent = 0.00754809 secs
Neighbor list info ...
  update every 1 steps, delay 0 steps, check yes
  max neighbors/atom: 2000, page size: 100000
  master list distance cutoff = 2.8
  ghost atom cutoff = 2.8
  binsize = 1.4, bins = 53 53 1
  1 neighbor lists, perpetual/occasional/extra = 1 0 0
  (1) pair lj/cut, perpetual
      attributes: half, newton on
      pair build: half/bin/atomonly/newton
      stencil: half/bin/2d/newton
      bin: standard
Setting up Verlet run ...
  Unit style    : lj
  Current step  : 0
  Time step     : 0.005
Per MPI rank memory allocation (min/avg/max) = 2.702 | 2.797 | 2.952 Mbytes
Step Temp E_pair E_mol TotEng Press 
       0            1     -1.56492            0   -0.5652325   -1.5346995 
    1000    1.0063515   -1.5732592            0  -0.56722209    1.0061204 
    2000   0.95792094   -1.5781469            0  -0.62052531   0.96571772 
    3000   0.98401573    -1.588743            0  -0.60503472   0.97094222 
    4000   0.99740124   -1.5757024            0  -0.57861287   0.99998732 
    5000    1.0348886   -1.6022633            0  -0.56769811   0.97795086 
Loop time of 2.03496 on 2176 procs for 5000 steps with 3200 atoms

Performance: 1061447.930 tau/day, 2457.055 timesteps/s
97.4% CPU use with 2176 MPI tasks x 1 OpenMP threads

MPI task timing breakdown:
Section |  min time  |  avg time  |  max time  |%varavg| %total
---------------------------------------------------------------
Pair    | 0.011959   | 0.014588   | 0.019158   |   0.6 |  0.72
Neigh   | 0.0047164  | 0.0054122  | 0.0082941  |   0.6 |  0.27
Comm    | 0.67305    | 0.80233    | 0.94849    |   5.1 | 39.43
Output  | 0.0057926  | 0.0072819  | 0.0077779  |   0.4 |  0.36
Modify  | 0.030757   | 0.033353   | 0.043677   |   0.7 |  1.64
Other   |            | 1.172      |            |       | 57.59

Nlocal:    1.47059 ave 4 max 0 min
Histogram: 156 0 945 0 0 972 0 101 0 2
Nghost:    29.7891 ave 39 max 22 min
Histogram: 19 78 286 246 701 556 148 126 15 1
Neighs:    10.324 ave 33 max 0 min
Histogram: 178 392 523 392 399 200 61 27 1 3

Total # of neighbors = 22465
Ave neighs/atom = 7.02031
Neighbor list builds = 601
Dangerous builds = 0
Setting up Verlet run ...
  Unit style    : lj
  Current step  : 0
  Time step     : 0.005
Per MPI rank memory allocation (min/avg/max) = 3.327 | 3.327 | 3.327 Mbytes
Step Temp c_vacf[4] v_vacf 
       0    1.0348886    2.0691304            0 
    5000      1.01618  0.010970342    0.3062452 
   10000    1.0210865 0.0018251732    0.3939561 
   15000    1.0201407 -0.0051204578   0.50191967 
   20000    1.0169872  0.032935727   0.54134779 
   25000    1.0117798  -0.01580966     0.615112 
   30000    1.0284167 -0.0089673686   0.71447644 
   35000    1.0072394 -0.027346896   0.70401385 
   40000    1.0180797 -0.024551015   0.74660961 
   45000    1.0221593 -0.0059135592   0.75865906 
   50000    1.0150177  -0.04225538   0.87981449 
   55000    1.0190131 -0.039301263   0.91325887 
   60000    1.0153908  0.068561184   0.90266577 
Loop time of 39.4323 on 2176 procs for 60000 steps with 3200 atoms

Performance: 657329.543 tau/day, 1521.596 timesteps/s
98.4% CPU use with 2176 MPI tasks x 1 OpenMP threads

MPI task timing breakdown:
Section |  min time  |  avg time  |  max time  |%varavg| %total
---------------------------------------------------------------
Pair    | 0.16467    | 0.17542    | 0.24333    |   2.0 |  0.44
Neigh   | 0.064936   | 0.070153   | 0.10574    |   2.2 |  0.18
Comm    | 8.3226     | 9.6752     | 12.053     |  20.0 | 24.54
Output  | 0.010693   | 0.010953   | 0.011881   |   0.1 |  0.03
Modify  | 19.066     | 21.376     | 22.693     |  13.4 | 54.21
Other   |            | 8.125      |            |       | 20.60

Nlocal:    1.47059 ave 4 max 0 min
Histogram: 157 0 936 0 0 987 0 94 0 2
Nghost:    29.9081 ave 38 max 20 min
Histogram: 9 24 120 260 239 579 567 278 84 16
Neighs:    10.284 ave 33 max 0 min
Histogram: 171 403 492 438 388 205 50 19 8 2

Total # of neighbors = 22378
Ave neighs/atom = 6.99313
Neighbor list builds = 7770
Dangerous builds = 0
Total wall time: 0:00:41
endTime:Sun Nov 15 01:37:30 PST 2020


Starting job in lowerRouterStall policy..
startTime:Sun Nov 15 01:37:30 PST 2020

LAMMPS (20 Apr 2018)
OMP_NUM_THREADS environment is not set. Defaulting to 1 thread. (../comm.cpp:90)
  using 1 OpenMP thread(s) per MPI task
Lattice spacing in x,y,z = 1.82574 1.82574 1.82574
Created orthogonal box = (0 0 -0.182574) to (73.0297 73.0297 0.182574)
  64 by 34 by 1 MPI processor grid
Created 3200 atoms
  Time spent = 0.0103722 secs
Neighbor list info ...
  update every 1 steps, delay 0 steps, check yes
  max neighbors/atom: 2000, page size: 100000
  master list distance cutoff = 2.8
  ghost atom cutoff = 2.8
  binsize = 1.4, bins = 53 53 1
  1 neighbor lists, perpetual/occasional/extra = 1 0 0
  (1) pair lj/cut, perpetual
      attributes: half, newton on
      pair build: half/bin/atomonly/newton
      stencil: half/bin/2d/newton
      bin: standard
Setting up Verlet run ...
  Unit style    : lj
  Current step  : 0
  Time step     : 0.005
Per MPI rank memory allocation (min/avg/max) = 2.702 | 2.797 | 2.952 Mbytes
Step Temp E_pair E_mol TotEng Press 
       0            1     -1.56492            0   -0.5652325   -1.5346995 
    1000    1.0063515   -1.5732592            0  -0.56722209    1.0061204 
    2000   0.95792094   -1.5781469            0  -0.62052531   0.96571772 
    3000   0.98401573    -1.588743            0  -0.60503472   0.97094222 
    4000   0.99740124   -1.5757024            0  -0.57861287   0.99998732 
    5000    1.0348886   -1.6022633            0  -0.56769811   0.97795086 
Loop time of 3.61428 on 2176 procs for 5000 steps with 3200 atoms

Performance: 597629.496 tau/day, 1383.402 timesteps/s
98.4% CPU use with 2176 MPI tasks x 1 OpenMP threads

MPI task timing breakdown:
Section |  min time  |  avg time  |  max time  |%varavg| %total
---------------------------------------------------------------
Pair    | 0.012003   | 0.014557   | 0.021338   |   0.7 |  0.40
Neigh   | 0.00473    | 0.0054471  | 0.0083201  |   0.6 |  0.15
Comm    | 0.86138    | 1.2054     | 1.6457     |  14.5 | 33.35
Output  | 0.0050306  | 0.0053465  | 0.0065908  |   0.4 |  0.15
Modify  | 0.031077   | 0.033598   | 0.045614   |   0.9 |  0.93
Other   |            | 2.35       |            |       | 65.02

Nlocal:    1.47059 ave 4 max 0 min
Histogram: 156 0 945 0 0 972 0 101 0 2
Nghost:    29.7891 ave 39 max 22 min
Histogram: 19 78 286 246 701 556 148 126 15 1
Neighs:    10.324 ave 33 max 0 min
Histogram: 178 392 523 392 399 200 61 27 1 3

Total # of neighbors = 22465
Ave neighs/atom = 7.02031
Neighbor list builds = 601
Dangerous builds = 0
Setting up Verlet run ...
  Unit style    : lj
  Current step  : 0
  Time step     : 0.005
Per MPI rank memory allocation (min/avg/max) = 3.327 | 3.327 | 3.327 Mbytes
Step Temp c_vacf[4] v_vacf 
       0    1.0348886    2.0691304            0 
    5000      1.01618  0.010970342    0.3062452 
   10000    1.0210865 0.0018251732    0.3939561 
   15000    1.0201407 -0.0051204578   0.50191967 
   20000    1.0169872  0.032935727   0.54134779 
   25000    1.0117798  -0.01580966     0.615112 
   30000    1.0284167 -0.0089673686   0.71447644 
   35000    1.0072394 -0.027346896   0.70401385 
   40000    1.0180797 -0.024551015   0.74660961 
   45000    1.0221593 -0.0059135592   0.75865906 
   50000    1.0150177  -0.04225538   0.87981449 
   55000    1.0190131 -0.039301263   0.91325887 
   60000    1.0153908  0.068561184   0.90266577 
Loop time of 38.6888 on 2176 procs for 60000 steps with 3200 atoms

Performance: 669961.469 tau/day, 1550.837 timesteps/s
98.4% CPU use with 2176 MPI tasks x 1 OpenMP threads

MPI task timing breakdown:
Section |  min time  |  avg time  |  max time  |%varavg| %total
---------------------------------------------------------------
Pair    | 0.166      | 0.1744     | 0.24287    |   1.9 |  0.45
Neigh   | 0.064907   | 0.069834   | 0.10512    |   2.1 |  0.18
Comm    | 8.2257     | 9.5299     | 11.249     |  17.1 | 24.63
Output  | 0.010734   | 0.011069   | 0.012208   |   0.2 |  0.03
Modify  | 19.127     | 20.895     | 22.236     |  11.9 | 54.01
Other   |            | 8.009      |            |       | 20.70

Nlocal:    1.47059 ave 4 max 0 min
Histogram: 157 0 936 0 0 987 0 94 0 2
Nghost:    29.9081 ave 38 max 20 min
Histogram: 9 24 120 260 239 579 567 278 84 16
Neighs:    10.284 ave 33 max 0 min
Histogram: 171 403 492 438 388 205 50 19 8 2

Total # of neighbors = 22378
Ave neighs/atom = 6.99313
Neighbor list builds = 7770
Dangerous builds = 0
Total wall time: 0:00:42
endTime:Sun Nov 15 01:38:46 PST 2020


Starting job in fewerSwitch policy..
startTime:Sun Nov 15 01:38:46 PST 2020

LAMMPS (20 Apr 2018)
OMP_NUM_THREADS environment is not set. Defaulting to 1 thread. (../comm.cpp:90)
  using 1 OpenMP thread(s) per MPI task
Lattice spacing in x,y,z = 1.82574 1.82574 1.82574
Created orthogonal box = (0 0 -0.182574) to (73.0297 73.0297 0.182574)
  64 by 34 by 1 MPI processor grid
Created 3200 atoms
  Time spent = 0.0135078 secs
Neighbor list info ...
  update every 1 steps, delay 0 steps, check yes
  max neighbors/atom: 2000, page size: 100000
  master list distance cutoff = 2.8
  ghost atom cutoff = 2.8
  binsize = 1.4, bins = 53 53 1
  1 neighbor lists, perpetual/occasional/extra = 1 0 0
  (1) pair lj/cut, perpetual
      attributes: half, newton on
      pair build: half/bin/atomonly/newton
      stencil: half/bin/2d/newton
      bin: standard
Setting up Verlet run ...
  Unit style    : lj
  Current step  : 0
  Time step     : 0.005
Per MPI rank memory allocation (min/avg/max) = 2.702 | 2.797 | 2.952 Mbytes
Step Temp E_pair E_mol TotEng Press 
       0            1     -1.56492            0   -0.5652325   -1.5346995 
    1000    1.0063515   -1.5732592            0  -0.56722209    1.0061204 
    2000   0.95792094   -1.5781469            0  -0.62052531   0.96571772 
    3000   0.98401573    -1.588743            0  -0.60503472   0.97094222 
    4000   0.99740124   -1.5757024            0  -0.57861287   0.99998732 
    5000    1.0348886   -1.6022633            0  -0.56769811   0.97795086 
Loop time of 1.98118 on 2176 procs for 5000 steps with 3200 atoms

Performance: 1090259.324 tau/day, 2523.748 timesteps/s
97.6% CPU use with 2176 MPI tasks x 1 OpenMP threads

MPI task timing breakdown:
Section |  min time  |  avg time  |  max time  |%varavg| %total
---------------------------------------------------------------
Pair    | 0.012049   | 0.014499   | 0.019657   |   0.6 |  0.73
Neigh   | 0.0046961  | 0.0054138  | 0.0080965  |   0.6 |  0.27
Comm    | 0.68796    | 0.78042    | 0.9964     |   5.9 | 39.39
Output  | 0.0056212  | 0.0062698  | 0.0076468  |   0.8 |  0.32
Modify  | 0.030634   | 0.033459   | 0.042049   |   0.6 |  1.69
Other   |            | 1.141      |            |       | 57.60

Nlocal:    1.47059 ave 4 max 0 min
Histogram: 156 0 945 0 0 972 0 101 0 2
Nghost:    29.7891 ave 39 max 22 min
Histogram: 19 78 286 246 701 556 148 126 15 1
Neighs:    10.324 ave 33 max 0 min
Histogram: 178 392 523 392 399 200 61 27 1 3

Total # of neighbors = 22465
Ave neighs/atom = 7.02031
Neighbor list builds = 601
Dangerous builds = 0
Setting up Verlet run ...
  Unit style    : lj
  Current step  : 0
  Time step     : 0.005
Per MPI rank memory allocation (min/avg/max) = 3.327 | 3.327 | 3.327 Mbytes
Step Temp c_vacf[4] v_vacf 
       0    1.0348886    2.0691304            0 
    5000      1.01618  0.010970342    0.3062452 
   10000    1.0210865 0.0018251732    0.3939561 
   15000    1.0201407 -0.0051204578   0.50191967 
   20000    1.0169872  0.032935727   0.54134779 
   25000    1.0117798  -0.01580966     0.615112 
   30000    1.0284167 -0.0089673686   0.71447644 
   35000    1.0072394 -0.027346896   0.70401385 
   40000    1.0180797 -0.024551015   0.74660961 
   45000    1.0221593 -0.0059135592   0.75865906 
   50000    1.0150177  -0.04225538   0.87981449 
   55000    1.0190131 -0.039301263   0.91325887 
   60000    1.0153908  0.068561184   0.90266577 
Loop time of 36.4931 on 2176 procs for 60000 steps with 3200 atoms

Performance: 710271.286 tau/day, 1644.146 timesteps/s
98.3% CPU use with 2176 MPI tasks x 1 OpenMP threads

MPI task timing breakdown:
Section |  min time  |  avg time  |  max time  |%varavg| %total
---------------------------------------------------------------
Pair    | 0.16578    | 0.17436    | 0.25356    |   1.9 |  0.48
Neigh   | 0.064733   | 0.069954   | 0.10551    |   2.2 |  0.19
Comm    | 8.1792     | 9.1768     | 11.916     |  22.5 | 25.15
Output  | 0.012563   | 0.01329    | 0.014259   |   0.2 |  0.04
Modify  | 16.695     | 19.404     | 20.45      |  15.5 | 53.17
Other   |            | 7.655      |            |       | 20.98

Nlocal:    1.47059 ave 4 max 0 min
Histogram: 157 0 936 0 0 987 0 94 0 2
Nghost:    29.9081 ave 38 max 20 min
Histogram: 9 24 120 260 239 579 567 278 84 16
Neighs:    10.284 ave 33 max 0 min
Histogram: 171 403 492 438 388 205 50 19 8 2

Total # of neighbors = 22378
Ave neighs/atom = 6.99313
Neighbor list builds = 7770
Dangerous builds = 0
Total wall time: 0:00:38
endTime:Sun Nov 15 01:39:58 PST 2020


Starting job in random policy..
startTime:Sun Nov 15 01:39:58 PST 2020

LAMMPS (20 Apr 2018)
OMP_NUM_THREADS environment is not set. Defaulting to 1 thread. (../comm.cpp:90)
  using 1 OpenMP thread(s) per MPI task
Lattice spacing in x,y,z = 1.82574 1.82574 1.82574
Created orthogonal box = (0 0 -0.182574) to (73.0297 73.0297 0.182574)
  64 by 34 by 1 MPI processor grid
Created 3200 atoms
  Time spent = 0.0098381 secs
Neighbor list info ...
  update every 1 steps, delay 0 steps, check yes
  max neighbors/atom: 2000, page size: 100000
  master list distance cutoff = 2.8
  ghost atom cutoff = 2.8
  binsize = 1.4, bins = 53 53 1
  1 neighbor lists, perpetual/occasional/extra = 1 0 0
  (1) pair lj/cut, perpetual
      attributes: half, newton on
      pair build: half/bin/atomonly/newton
      stencil: half/bin/2d/newton
      bin: standard
Setting up Verlet run ...
  Unit style    : lj
  Current step  : 0
  Time step     : 0.005
Per MPI rank memory allocation (min/avg/max) = 2.702 | 2.797 | 2.952 Mbytes
Step Temp E_pair E_mol TotEng Press 
       0            1     -1.56492            0   -0.5652325   -1.5346995 
    1000    1.0063515   -1.5732592            0  -0.56722209    1.0061204 
    2000   0.95792094   -1.5781469            0  -0.62052531   0.96571772 
    3000   0.98401573    -1.588743            0  -0.60503472   0.97094222 
    4000   0.99740124   -1.5757024            0  -0.57861287   0.99998732 
    5000    1.0348886   -1.6022633            0  -0.56769811   0.97795086 
Loop time of 4.29837 on 2176 procs for 5000 steps with 3200 atoms

Performance: 502515.721 tau/day, 1163.231 timesteps/s
98.6% CPU use with 2176 MPI tasks x 1 OpenMP threads

MPI task timing breakdown:
Section |  min time  |  avg time  |  max time  |%varavg| %total
---------------------------------------------------------------
Pair    | 0.011973   | 0.014585   | 0.022344   |   0.8 |  0.34
Neigh   | 0.0047379  | 0.0054806  | 0.0083916  |   0.6 |  0.13
Comm    | 0.99266    | 1.4097     | 2.0101     |  23.7 | 32.80
Output  | 0.0061629  | 0.0068504  | 0.0072777  |   0.3 |  0.16
Modify  | 0.030797   | 0.033669   | 0.046341   |   1.0 |  0.78
Other   |            | 2.828      |            |       | 65.79

Nlocal:    1.47059 ave 4 max 0 min
Histogram: 156 0 945 0 0 972 0 101 0 2
Nghost:    29.7891 ave 39 max 22 min
Histogram: 19 78 286 246 701 556 148 126 15 1
Neighs:    10.324 ave 33 max 0 min
Histogram: 178 392 523 392 399 200 61 27 1 3

Total # of neighbors = 22465
Ave neighs/atom = 7.02031
Neighbor list builds = 601
Dangerous builds = 0
Setting up Verlet run ...
  Unit style    : lj
  Current step  : 0
  Time step     : 0.005
Per MPI rank memory allocation (min/avg/max) = 3.327 | 3.327 | 3.327 Mbytes
Step Temp c_vacf[4] v_vacf 
       0    1.0348886    2.0691304            0 
    5000      1.01618  0.010970342    0.3062452 
   10000    1.0210865 0.0018251732    0.3939561 
   15000    1.0201407 -0.0051204578   0.50191967 
   20000    1.0169872  0.032935727   0.54134779 
   25000    1.0117798  -0.01580966     0.615112 
   30000    1.0284167 -0.0089673686   0.71447644 
   35000    1.0072394 -0.027346896   0.70401385 
   40000    1.0180797 -0.024551015   0.74660961 
   45000    1.0221593 -0.0059135592   0.75865906 
   50000    1.0150177  -0.04225538   0.87981449 
   55000    1.0190131 -0.039301263   0.91325887 
   60000    1.0153908  0.068561184   0.90266577 
Loop time of 65.1227 on 2176 procs for 60000 steps with 3200 atoms

Performance: 398017.858 tau/day, 921.338 timesteps/s
98.9% CPU use with 2176 MPI tasks x 1 OpenMP threads

MPI task timing breakdown:
Section |  min time  |  avg time  |  max time  |%varavg| %total
---------------------------------------------------------------
Pair    | 0.16571    | 0.17547    | 0.28057    |   2.8 |  0.27
Neigh   | 0.065203   | 0.070806   | 0.11065    |   2.3 |  0.11
Comm    | 8.9499     | 13.768     | 22.311     |  79.3 | 21.14
Output  | 0.011416   | 0.012007   | 0.013085   |   0.3 |  0.02
Modify  | 29.679     | 38.325     | 43.15      |  47.5 | 58.85
Other   |            | 12.77      |            |       | 19.61

Nlocal:    1.47059 ave 4 max 0 min
Histogram: 157 0 936 0 0 987 0 94 0 2
Nghost:    29.9081 ave 38 max 20 min
Histogram: 9 24 120 260 239 579 567 278 84 16
Neighs:    10.284 ave 33 max 0 min
Histogram: 171 403 492 438 388 205 50 19 8 2

Total # of neighbors = 22378
Ave neighs/atom = 6.99313
Neighbor list builds = 7770
Dangerous builds = 0
Total wall time: 0:01:09
endTime:Sun Nov 15 01:41:17 PST 2020


Starting job in antinedd policy..
startTime:Sun Nov 15 01:41:17 PST 2020

LAMMPS (20 Apr 2018)
OMP_NUM_THREADS environment is not set. Defaulting to 1 thread. (../comm.cpp:90)
  using 1 OpenMP thread(s) per MPI task
Lattice spacing in x,y,z = 1.82574 1.82574 1.82574
Created orthogonal box = (0 0 -0.182574) to (73.0297 73.0297 0.182574)
  64 by 34 by 1 MPI processor grid
Created 3200 atoms
  Time spent = 0.0129409 secs
Neighbor list info ...
  update every 1 steps, delay 0 steps, check yes
  max neighbors/atom: 2000, page size: 100000
  master list distance cutoff = 2.8
  ghost atom cutoff = 2.8
  binsize = 1.4, bins = 53 53 1
  1 neighbor lists, perpetual/occasional/extra = 1 0 0
  (1) pair lj/cut, perpetual
      attributes: half, newton on
      pair build: half/bin/atomonly/newton
      stencil: half/bin/2d/newton
      bin: standard
Setting up Verlet run ...
  Unit style    : lj
  Current step  : 0
  Time step     : 0.005
Per MPI rank memory allocation (min/avg/max) = 2.702 | 2.797 | 2.952 Mbytes
Step Temp E_pair E_mol TotEng Press 
       0            1     -1.56492            0   -0.5652325   -1.5346995 
    1000    1.0063515   -1.5732592            0  -0.56722209    1.0061204 
    2000   0.95792094   -1.5781469            0  -0.62052531   0.96571772 
    3000   0.98401573    -1.588743            0  -0.60503472   0.97094222 
    4000   0.99740124   -1.5757024            0  -0.57861287   0.99998732 
    5000    1.0348886   -1.6022633            0  -0.56769811   0.97795086 
Loop time of 1.98617 on 2176 procs for 5000 steps with 3200 atoms

Performance: 1087520.917 tau/day, 2517.410 timesteps/s
97.4% CPU use with 2176 MPI tasks x 1 OpenMP threads

MPI task timing breakdown:
Section |  min time  |  avg time  |  max time  |%varavg| %total
---------------------------------------------------------------
Pair    | 0.011952   | 0.014497   | 0.020238   |   0.6 |  0.73
Neigh   | 0.0047967  | 0.0053936  | 0.0082271  |   0.6 |  0.27
Comm    | 0.65095    | 0.76       | 1.0112     |   7.6 | 38.26
Output  | 0.0026157  | 0.0028516  | 0.0029571  |   0.1 |  0.14
Modify  | 0.030756   | 0.033389   | 0.043194   |   0.6 |  1.68
Other   |            | 1.17       |            |       | 58.91

Nlocal:    1.47059 ave 4 max 0 min
Histogram: 156 0 945 0 0 972 0 101 0 2
Nghost:    29.7891 ave 39 max 22 min
Histogram: 19 78 286 246 701 556 148 126 15 1
Neighs:    10.324 ave 33 max 0 min
Histogram: 178 392 523 392 399 200 61 27 1 3

Total # of neighbors = 22465
Ave neighs/atom = 7.02031
Neighbor list builds = 601
Dangerous builds = 0
Setting up Verlet run ...
  Unit style    : lj
  Current step  : 0
  Time step     : 0.005
Per MPI rank memory allocation (min/avg/max) = 3.327 | 3.327 | 3.327 Mbytes
Step Temp c_vacf[4] v_vacf 
       0    1.0348886    2.0691304            0 
    5000      1.01618  0.010970342    0.3062452 
   10000    1.0210865 0.0018251732    0.3939561 
   15000    1.0201407 -0.0051204578   0.50191967 
   20000    1.0169872  0.032935727   0.54134779 
   25000    1.0117798  -0.01580966     0.615112 
   30000    1.0284167 -0.0089673686   0.71447644 
   35000    1.0072394 -0.027346896   0.70401385 
   40000    1.0180797 -0.024551015   0.74660961 
   45000    1.0221593 -0.0059135592   0.75865906 
   50000    1.0150177  -0.04225538   0.87981449 
   55000    1.0190131 -0.039301263   0.91325887 
   60000    1.0153908  0.068561184   0.90266577 
Loop time of 41.2255 on 2176 procs for 60000 steps with 3200 atoms

Performance: 628737.061 tau/day, 1455.410 timesteps/s
98.4% CPU use with 2176 MPI tasks x 1 OpenMP threads

MPI task timing breakdown:
Section |  min time  |  avg time  |  max time  |%varavg| %total
---------------------------------------------------------------
Pair    | 0.16508    | 0.17458    | 0.25891    |   2.0 |  0.42
Neigh   | 0.064832   | 0.069982   | 0.10758    |   2.2 |  0.17
Comm    | 8.5375     | 9.9167     | 11.725     |  18.5 | 24.05
Output  | 0.011535   | 0.011967   | 0.013067   |   0.1 |  0.03
Modify  | 20.723     | 22.524     | 23.919     |  12.4 | 54.64
Other   |            | 8.528      |            |       | 20.69

Nlocal:    1.47059 ave 4 max 0 min
Histogram: 157 0 936 0 0 987 0 94 0 2
Nghost:    29.9081 ave 38 max 20 min
Histogram: 9 24 120 260 239 579 567 278 84 16
Neighs:    10.284 ave 33 max 0 min
Histogram: 171 403 492 438 388 205 50 19 8 2

Total # of neighbors = 22378
Ave neighs/atom = 6.99313
Neighbor list builds = 7770
Dangerous builds = 0
Total wall time: 0:00:43
endTime:Sun Nov 15 01:42:08 PST 2020


Starting job in neddNoCong policy..
startTime:Sun Nov 15 01:42:13 PST 2020

LAMMPS (20 Apr 2018)
OMP_NUM_THREADS environment is not set. Defaulting to 1 thread. (../comm.cpp:90)
  using 1 OpenMP thread(s) per MPI task
Lattice spacing in x,y,z = 1.82574 1.82574 1.82574
Created orthogonal box = (0 0 -0.182574) to (73.0297 73.0297 0.182574)
  64 by 34 by 1 MPI processor grid
Created 3200 atoms
  Time spent = 0.00707388 secs
Neighbor list info ...
  update every 1 steps, delay 0 steps, check yes
  max neighbors/atom: 2000, page size: 100000
  master list distance cutoff = 2.8
  ghost atom cutoff = 2.8
  binsize = 1.4, bins = 53 53 1
  1 neighbor lists, perpetual/occasional/extra = 1 0 0
  (1) pair lj/cut, perpetual
      attributes: half, newton on
      pair build: half/bin/atomonly/newton
      stencil: half/bin/2d/newton
      bin: standard
Setting up Verlet run ...
  Unit style    : lj
  Current step  : 0
  Time step     : 0.005
Per MPI rank memory allocation (min/avg/max) = 2.702 | 2.797 | 2.952 Mbytes
Step Temp E_pair E_mol TotEng Press 
       0            1     -1.56492            0   -0.5652325   -1.5346995 
    1000    1.0063515   -1.5732592            0  -0.56722209    1.0061204 
    2000   0.95792094   -1.5781469            0  -0.62052531   0.96571772 
    3000   0.98401573    -1.588743            0  -0.60503472   0.97094222 
    4000   0.99740124   -1.5757024            0  -0.57861287   0.99998732 
    5000    1.0348886   -1.6022633            0  -0.56769811   0.97795086 
Loop time of 3.63668 on 2176 procs for 5000 steps with 3200 atoms

Performance: 593948.373 tau/day, 1374.880 timesteps/s
98.5% CPU use with 2176 MPI tasks x 1 OpenMP threads

MPI task timing breakdown:
Section |  min time  |  avg time  |  max time  |%varavg| %total
---------------------------------------------------------------
Pair    | 0.012022   | 0.014539   | 0.019929   |   0.7 |  0.40
Neigh   | 0.0047903  | 0.0054399  | 0.0081697  |   0.6 |  0.15
Comm    | 0.74661    | 1.1303     | 2.0384     |  25.6 | 31.08
Output  | 0.0044761  | 0.0047371  | 0.0048838  |   0.1 |  0.13
Modify  | 0.030905   | 0.033508   | 0.042522   |   0.7 |  0.92
Other   |            | 2.448      |            |       | 67.32

Nlocal:    1.47059 ave 4 max 0 min
Histogram: 156 0 945 0 0 972 0 101 0 2
Nghost:    29.7891 ave 39 max 22 min
Histogram: 19 78 286 246 701 556 148 126 15 1
Neighs:    10.324 ave 33 max 0 min
Histogram: 178 392 523 392 399 200 61 27 1 3

Total # of neighbors = 22465
Ave neighs/atom = 7.02031
Neighbor list builds = 601
Dangerous builds = 0
Setting up Verlet run ...
  Unit style    : lj
  Current step  : 0
  Time step     : 0.005
Per MPI rank memory allocation (min/avg/max) = 3.327 | 3.327 | 3.327 Mbytes
Step Temp c_vacf[4] v_vacf 
       0    1.0348886    2.0691304            0 
    5000      1.01618  0.010970342    0.3062452 
   10000    1.0210865 0.0018251732    0.3939561 
   15000    1.0201407 -0.0051204578   0.50191967 
   20000    1.0169872  0.032935727   0.54134779 
   25000    1.0117798  -0.01580966     0.615112 
   30000    1.0284167 -0.0089673686   0.71447644 
   35000    1.0072394 -0.027346896   0.70401385 
   40000    1.0180797 -0.024551015   0.74660961 
   45000    1.0221593 -0.0059135592   0.75865906 
   50000    1.0150177  -0.04225538   0.87981449 
   55000    1.0190131 -0.039301263   0.91325887 
   60000    1.0153908  0.068561184   0.90266577 
Loop time of 46.5868 on 2176 procs for 60000 steps with 3200 atoms

Performance: 556380.243 tau/day, 1287.917 timesteps/s
98.6% CPU use with 2176 MPI tasks x 1 OpenMP threads

MPI task timing breakdown:
Section |  min time  |  avg time  |  max time  |%varavg| %total
---------------------------------------------------------------
Pair    | 0.16539    | 0.17484    | 0.25527    |   2.3 |  0.38
Neigh   | 0.065116   | 0.070435   | 0.10739    |   2.2 |  0.15
Comm    | 8.8663     | 10.642     | 13.664     |  27.7 | 22.84
Output  | 0.010481   | 0.010787   | 0.011699   |   0.1 |  0.02
Modify  | 23.362     | 26.37      | 28.106     |  17.6 | 56.60
Other   |            | 9.318      |            |       | 20.00

Nlocal:    1.47059 ave 4 max 0 min
Histogram: 157 0 936 0 0 987 0 94 0 2
Nghost:    29.9081 ave 38 max 20 min
Histogram: 9 24 120 260 239 579 567 278 84 16
Neighs:    10.284 ave 33 max 0 min
Histogram: 171 403 492 438 388 205 50 19 8 2

Total # of neighbors = 22378
Ave neighs/atom = 6.99313
Neighbor list builds = 7770
Dangerous builds = 0
Total wall time: 0:00:50
endTime:Sun Nov 15 01:43:13 PST 2020


Starting job in fewerNoCong policy..
startTime:Sun Nov 15 01:43:13 PST 2020

LAMMPS (20 Apr 2018)
OMP_NUM_THREADS environment is not set. Defaulting to 1 thread. (../comm.cpp:90)
  using 1 OpenMP thread(s) per MPI task
Lattice spacing in x,y,z = 1.82574 1.82574 1.82574
Created orthogonal box = (0 0 -0.182574) to (73.0297 73.0297 0.182574)
  64 by 34 by 1 MPI processor grid
Created 3200 atoms
  Time spent = 0.011519 secs
Neighbor list info ...
  update every 1 steps, delay 0 steps, check yes
  max neighbors/atom: 2000, page size: 100000
  master list distance cutoff = 2.8
  ghost atom cutoff = 2.8
  binsize = 1.4, bins = 53 53 1
  1 neighbor lists, perpetual/occasional/extra = 1 0 0
  (1) pair lj/cut, perpetual
      attributes: half, newton on
      pair build: half/bin/atomonly/newton
      stencil: half/bin/2d/newton
      bin: standard
Setting up Verlet run ...
  Unit style    : lj
  Current step  : 0
  Time step     : 0.005
Per MPI rank memory allocation (min/avg/max) = 2.702 | 2.797 | 2.952 Mbytes
Step Temp E_pair E_mol TotEng Press 
       0            1     -1.56492            0   -0.5652325   -1.5346995 
    1000    1.0063515   -1.5732592            0  -0.56722209    1.0061204 
    2000   0.95792094   -1.5781469            0  -0.62052531   0.96571772 
    3000   0.98401573    -1.588743            0  -0.60503472   0.97094222 
    4000   0.99740124   -1.5757024            0  -0.57861287   0.99998732 
    5000    1.0348886   -1.6022633            0  -0.56769811   0.97795086 
Loop time of 2.06019 on 2176 procs for 5000 steps with 3200 atoms

Performance: 1048447.328 tau/day, 2426.961 timesteps/s
97.5% CPU use with 2176 MPI tasks x 1 OpenMP threads

MPI task timing breakdown:
Section |  min time  |  avg time  |  max time  |%varavg| %total
---------------------------------------------------------------
Pair    | 0.012041   | 0.014488   | 0.020907   |   0.6 |  0.70
Neigh   | 0.0046873  | 0.0053883  | 0.0080976  |   0.6 |  0.26
Comm    | 0.64868    | 0.76829    | 1.1514     |  11.0 | 37.29
Output  | 0.0025659  | 0.0027988  | 0.0029314  |   0.1 |  0.14
Modify  | 0.030842   | 0.033389   | 0.042483   |   0.7 |  1.62
Other   |            | 1.236      |            |       | 59.99

Nlocal:    1.47059 ave 4 max 0 min
Histogram: 156 0 945 0 0 972 0 101 0 2
Nghost:    29.7891 ave 39 max 22 min
Histogram: 19 78 286 246 701 556 148 126 15 1
Neighs:    10.324 ave 33 max 0 min
Histogram: 178 392 523 392 399 200 61 27 1 3

Total # of neighbors = 22465
Ave neighs/atom = 7.02031
Neighbor list builds = 601
Dangerous builds = 0
Setting up Verlet run ...
  Unit style    : lj
  Current step  : 0
  Time step     : 0.005
Per MPI rank memory allocation (min/avg/max) = 3.327 | 3.327 | 3.327 Mbytes
Step Temp c_vacf[4] v_vacf 
       0    1.0348886    2.0691304            0 
    5000      1.01618  0.010970342    0.3062452 
   10000    1.0210865 0.0018251732    0.3939561 
   15000    1.0201407 -0.0051204578   0.50191967 
   20000    1.0169872  0.032935727   0.54134779 
   25000    1.0117798  -0.01580966     0.615112 
   30000    1.0284167 -0.0089673686   0.71447644 
   35000    1.0072394 -0.027346896   0.70401385 
   40000    1.0180797 -0.024551015   0.74660961 
   45000    1.0221593 -0.0059135592   0.75865906 
   50000    1.0150177  -0.04225538   0.87981449 
   55000    1.0190131 -0.039301263   0.91325887 
   60000    1.0153908  0.068561184   0.90266577 
Loop time of 36.3161 on 2176 procs for 60000 steps with 3200 atoms

Performance: 713733.766 tau/day, 1652.161 timesteps/s
98.3% CPU use with 2176 MPI tasks x 1 OpenMP threads

MPI task timing breakdown:
Section |  min time  |  avg time  |  max time  |%varavg| %total
---------------------------------------------------------------
Pair    | 0.16615    | 0.1742     | 0.26002    |   1.9 |  0.48
Neigh   | 0.064587   | 0.069607   | 0.10578    |   2.2 |  0.19
Comm    | 7.9963     | 9.0163     | 11.957     |  23.6 | 24.83
Output  | 0.010689   | 0.010989   | 0.01202    |   0.1 |  0.03
Modify  | 16.318     | 19.303     | 20.322     |  16.1 | 53.15
Other   |            | 7.742      |            |       | 21.32

Nlocal:    1.47059 ave 4 max 0 min
Histogram: 157 0 936 0 0 987 0 94 0 2
Nghost:    29.9081 ave 38 max 20 min
Histogram: 9 24 120 260 239 579 567 278 84 16
Neighs:    10.284 ave 33 max 0 min
Histogram: 171 403 492 438 388 205 50 19 8 2

Total # of neighbors = 22378
Ave neighs/atom = 6.99313
Neighbor list builds = 7770
Dangerous builds = 0
Total wall time: 0:00:38
endTime:Sun Nov 15 01:44:25 PST 2020


====================
iteration 2
Starting job in nedd policy..
startTime:Sun Nov 15 01:47:11 PST 2020

LAMMPS (20 Apr 2018)
OMP_NUM_THREADS environment is not set. Defaulting to 1 thread. (../comm.cpp:90)
  using 1 OpenMP thread(s) per MPI task
Lattice spacing in x,y,z = 1.82574 1.82574 1.82574
Created orthogonal box = (0 0 -0.182574) to (73.0297 73.0297 0.182574)
  64 by 34 by 1 MPI processor grid
Created 3200 atoms
  Time spent = 0.004879 secs
Neighbor list info ...
  update every 1 steps, delay 0 steps, check yes
  max neighbors/atom: 2000, page size: 100000
  master list distance cutoff = 2.8
  ghost atom cutoff = 2.8
  binsize = 1.4, bins = 53 53 1
  1 neighbor lists, perpetual/occasional/extra = 1 0 0
  (1) pair lj/cut, perpetual
      attributes: half, newton on
      pair build: half/bin/atomonly/newton
      stencil: half/bin/2d/newton
      bin: standard
Setting up Verlet run ...
  Unit style    : lj
  Current step  : 0
  Time step     : 0.005
Per MPI rank memory allocation (min/avg/max) = 2.702 | 2.797 | 2.952 Mbytes
Step Temp E_pair E_mol TotEng Press 
       0            1     -1.56492            0   -0.5652325   -1.5346995 
    1000    1.0063515   -1.5732592            0  -0.56722209    1.0061204 
    2000   0.95792094   -1.5781469            0  -0.62052531   0.96571772 
    3000   0.98401573    -1.588743            0  -0.60503472   0.97094222 
    4000   0.99740124   -1.5757024            0  -0.57861287   0.99998732 
    5000    1.0348886   -1.6022633            0  -0.56769811   0.97795086 
Loop time of 2.47562 on 2176 procs for 5000 steps with 3200 atoms

Performance: 872507.800 tau/day, 2019.694 timesteps/s
97.8% CPU use with 2176 MPI tasks x 1 OpenMP threads

MPI task timing breakdown:
Section |  min time  |  avg time  |  max time  |%varavg| %total
---------------------------------------------------------------
Pair    | 0.012209   | 0.014621   | 0.020177   |   0.7 |  0.59
Neigh   | 0.0047183  | 0.0054345  | 0.0084732  |   0.6 |  0.22
Comm    | 0.7092     | 0.87446    | 1.1806     |  10.9 | 35.32
Output  | 0.0031095  | 0.0035244  | 0.003819   |   0.3 |  0.14
Modify  | 0.030773   | 0.033446   | 0.045343   |   0.8 |  1.35
Other   |            | 1.544      |            |       | 62.37

Nlocal:    1.47059 ave 4 max 0 min
Histogram: 156 0 945 0 0 972 0 101 0 2
Nghost:    29.7891 ave 39 max 22 min
Histogram: 19 78 286 246 701 556 148 126 15 1
Neighs:    10.324 ave 33 max 0 min
Histogram: 178 392 523 392 399 200 61 27 1 3

Total # of neighbors = 22465
Ave neighs/atom = 7.02031
Neighbor list builds = 601
Dangerous builds = 0
Setting up Verlet run ...
  Unit style    : lj
  Current step  : 0
  Time step     : 0.005
Per MPI rank memory allocation (min/avg/max) = 3.327 | 3.327 | 3.327 Mbytes
Step Temp c_vacf[4] v_vacf 
       0    1.0348886    2.0691304            0 
    5000      1.01618  0.010970342    0.3062452 
   10000    1.0210865 0.0018251732    0.3939561 
   15000    1.0201407 -0.0051204578   0.50191967 
   20000    1.0169872  0.032935727   0.54134779 
   25000    1.0117798  -0.01580966     0.615112 
   30000    1.0284167 -0.0089673686   0.71447644 
   35000    1.0072394 -0.027346896   0.70401385 
   40000    1.0180797 -0.024551015   0.74660961 
   45000    1.0221593 -0.0059135592   0.75865906 
   50000    1.0150177  -0.04225538   0.87981449 
   55000    1.0190131 -0.039301263   0.91325887 
   60000    1.0153908  0.068561184   0.90266577 
Loop time of 49.3407 on 2176 procs for 60000 steps with 3200 atoms

Performance: 525326.614 tau/day, 1216.034 timesteps/s
98.7% CPU use with 2176 MPI tasks x 1 OpenMP threads

MPI task timing breakdown:
Section |  min time  |  avg time  |  max time  |%varavg| %total
---------------------------------------------------------------
Pair    | 0.1657     | 0.1759     | 0.2565     |   2.3 |  0.36
Neigh   | 0.065305   | 0.070426   | 0.10926    |   2.2 |  0.14
Comm    | 8.8371     | 10.975     | 14.534     |  35.5 | 22.24
Output  | 0.011582   | 0.011903   | 0.012598   |   0.1 |  0.02
Modify  | 24.503     | 28.119     | 30.225     |  22.1 | 56.99
Other   |            | 9.989      |            |       | 20.24

Nlocal:    1.47059 ave 4 max 0 min
Histogram: 157 0 936 0 0 987 0 94 0 2
Nghost:    29.9081 ave 38 max 20 min
Histogram: 9 24 120 260 239 579 567 278 84 16
Neighs:    10.284 ave 33 max 0 min
Histogram: 171 403 492 438 388 205 50 19 8 2

Total # of neighbors = 22378
Ave neighs/atom = 6.99313
Neighbor list builds = 7770
Dangerous builds = 0
Total wall time: 0:00:51
endTime:Sun Nov 15 01:48:11 PST 2020


Starting job in lowerRouterStall policy..
startTime:Sun Nov 15 01:48:12 PST 2020

LAMMPS (20 Apr 2018)
OMP_NUM_THREADS environment is not set. Defaulting to 1 thread. (../comm.cpp:90)
  using 1 OpenMP thread(s) per MPI task
Lattice spacing in x,y,z = 1.82574 1.82574 1.82574
Created orthogonal box = (0 0 -0.182574) to (73.0297 73.0297 0.182574)
  64 by 34 by 1 MPI processor grid
Created 3200 atoms
  Time spent = 0.0102661 secs
Neighbor list info ...
  update every 1 steps, delay 0 steps, check yes
  max neighbors/atom: 2000, page size: 100000
  master list distance cutoff = 2.8
  ghost atom cutoff = 2.8
  binsize = 1.4, bins = 53 53 1
  1 neighbor lists, perpetual/occasional/extra = 1 0 0
  (1) pair lj/cut, perpetual
      attributes: half, newton on
      pair build: half/bin/atomonly/newton
      stencil: half/bin/2d/newton
      bin: standard
Setting up Verlet run ...
  Unit style    : lj
  Current step  : 0
  Time step     : 0.005
Per MPI rank memory allocation (min/avg/max) = 2.702 | 2.797 | 2.952 Mbytes
Step Temp E_pair E_mol TotEng Press 
       0            1     -1.56492            0   -0.5652325   -1.5346995 
    1000    1.0063515   -1.5732592            0  -0.56722209    1.0061204 
    2000   0.95792094   -1.5781469            0  -0.62052531   0.96571772 
    3000   0.98401573    -1.588743            0  -0.60503472   0.97094222 
    4000   0.99740124   -1.5757024            0  -0.57861287   0.99998732 
    5000    1.0348886   -1.6022633            0  -0.56769811   0.97795086 
Loop time of 1.96898 on 2176 procs for 5000 steps with 3200 atoms

Performance: 1097012.832 tau/day, 2539.382 timesteps/s
97.2% CPU use with 2176 MPI tasks x 1 OpenMP threads

MPI task timing breakdown:
Section |  min time  |  avg time  |  max time  |%varavg| %total
---------------------------------------------------------------
Pair    | 0.012043   | 0.01457    | 0.01925    |   0.6 |  0.74
Neigh   | 0.004693   | 0.0053983  | 0.0080817  |   0.6 |  0.27
Comm    | 0.64399    | 0.77344    | 0.9772     |   6.0 | 39.28
Output  | 0.0025189  | 0.0028002  | 0.003098   |   0.2 |  0.14
Modify  | 0.030308   | 0.033323   | 0.042566   |   0.6 |  1.69
Other   |            | 1.139      |            |       | 57.87

Nlocal:    1.47059 ave 4 max 0 min
Histogram: 156 0 945 0 0 972 0 101 0 2
Nghost:    29.7891 ave 39 max 22 min
Histogram: 19 78 286 246 701 556 148 126 15 1
Neighs:    10.324 ave 33 max 0 min
Histogram: 178 392 523 392 399 200 61 27 1 3

Total # of neighbors = 22465
Ave neighs/atom = 7.02031
Neighbor list builds = 601
Dangerous builds = 0
Setting up Verlet run ...
  Unit style    : lj
  Current step  : 0
  Time step     : 0.005
Per MPI rank memory allocation (min/avg/max) = 3.327 | 3.327 | 3.327 Mbytes
Step Temp c_vacf[4] v_vacf 
       0    1.0348886    2.0691304            0 
    5000      1.01618  0.010970342    0.3062452 
   10000    1.0210865 0.0018251732    0.3939561 
   15000    1.0201407 -0.0051204578   0.50191967 
   20000    1.0169872  0.032935727   0.54134779 
   25000    1.0117798  -0.01580966     0.615112 
   30000    1.0284167 -0.0089673686   0.71447644 
   35000    1.0072394 -0.027346896   0.70401385 
   40000    1.0180797 -0.024551015   0.74660961 
   45000    1.0221593 -0.0059135592   0.75865906 
   50000    1.0150177  -0.04225538   0.87981449 
   55000    1.0190131 -0.039301263   0.91325887 
   60000    1.0153908  0.068561184   0.90266577 
Loop time of 42.6319 on 2176 procs for 60000 steps with 3200 atoms

Performance: 607995.341 tau/day, 1407.397 timesteps/s
98.4% CPU use with 2176 MPI tasks x 1 OpenMP threads

MPI task timing breakdown:
Section |  min time  |  avg time  |  max time  |%varavg| %total
---------------------------------------------------------------
Pair    | 0.16445    | 0.17541    | 0.25585    |   2.0 |  0.41
Neigh   | 0.064921   | 0.070233   | 0.10568    |   2.2 |  0.16
Comm    | 8.9245     | 9.9907     | 12.649     |  19.7 | 23.43
Output  | 0.015225   | 0.015928   | 0.017402   |   0.4 |  0.04
Modify  | 20.778     | 23.45      | 24.574     |  13.0 | 55.01
Other   |            | 8.93       |            |       | 20.95

Nlocal:    1.47059 ave 4 max 0 min
Histogram: 157 0 936 0 0 987 0 94 0 2
Nghost:    29.9081 ave 38 max 20 min
Histogram: 9 24 120 260 239 579 567 278 84 16
Neighs:    10.284 ave 33 max 0 min
Histogram: 171 403 492 438 388 205 50 19 8 2

Total # of neighbors = 22378
Ave neighs/atom = 6.99313
Neighbor list builds = 7770
Dangerous builds = 0
Total wall time: 0:00:44
endTime:Sun Nov 15 01:49:05 PST 2020


Starting job in fewerSwitch policy..
startTime:Sun Nov 15 01:49:05 PST 2020

LAMMPS (20 Apr 2018)
OMP_NUM_THREADS environment is not set. Defaulting to 1 thread. (../comm.cpp:90)
  using 1 OpenMP thread(s) per MPI task
Lattice spacing in x,y,z = 1.82574 1.82574 1.82574
Created orthogonal box = (0 0 -0.182574) to (73.0297 73.0297 0.182574)
  64 by 34 by 1 MPI processor grid
Created 3200 atoms
  Time spent = 0.00639486 secs
Neighbor list info ...
  update every 1 steps, delay 0 steps, check yes
  max neighbors/atom: 2000, page size: 100000
  master list distance cutoff = 2.8
  ghost atom cutoff = 2.8
  binsize = 1.4, bins = 53 53 1
  1 neighbor lists, perpetual/occasional/extra = 1 0 0
  (1) pair lj/cut, perpetual
      attributes: half, newton on
      pair build: half/bin/atomonly/newton
      stencil: half/bin/2d/newton
      bin: standard
Setting up Verlet run ...
  Unit style    : lj
  Current step  : 0
  Time step     : 0.005
Per MPI rank memory allocation (min/avg/max) = 2.702 | 2.797 | 2.952 Mbytes
Step Temp E_pair E_mol TotEng Press 
       0            1     -1.56492            0   -0.5652325   -1.5346995 
    1000    1.0063515   -1.5732592            0  -0.56722209    1.0061204 
    2000   0.95792094   -1.5781469            0  -0.62052531   0.96571772 
    3000   0.98401573    -1.588743            0  -0.60503472   0.97094222 
    4000   0.99740124   -1.5757024            0  -0.57861287   0.99998732 
    5000    1.0348886   -1.6022633            0  -0.56769811   0.97795086 
Loop time of 1.87122 on 2176 procs for 5000 steps with 3200 atoms

Performance: 1154325.028 tau/day, 2672.049 timesteps/s
97.3% CPU use with 2176 MPI tasks x 1 OpenMP threads

MPI task timing breakdown:
Section |  min time  |  avg time  |  max time  |%varavg| %total
---------------------------------------------------------------
Pair    | 0.012222   | 0.014506   | 0.019363   |   0.6 |  0.78
Neigh   | 0.0046763  | 0.0053894  | 0.0080228  |   0.6 |  0.29
Comm    | 0.67237    | 0.75693    | 1.0161     |   6.5 | 40.45
Output  | 0.0026481  | 0.0029761  | 0.00316    |   0.1 |  0.16
Modify  | 0.03054    | 0.033367   | 0.042099   |   0.6 |  1.78
Other   |            | 1.058      |            |       | 56.54

Nlocal:    1.47059 ave 4 max 0 min
Histogram: 156 0 945 0 0 972 0 101 0 2
Nghost:    29.7891 ave 39 max 22 min
Histogram: 19 78 286 246 701 556 148 126 15 1
Neighs:    10.324 ave 33 max 0 min
Histogram: 178 392 523 392 399 200 61 27 1 3

Total # of neighbors = 22465
Ave neighs/atom = 7.02031
Neighbor list builds = 601
Dangerous builds = 0
Setting up Verlet run ...
  Unit style    : lj
  Current step  : 0
  Time step     : 0.005
Per MPI rank memory allocation (min/avg/max) = 3.327 | 3.327 | 3.327 Mbytes
Step Temp c_vacf[4] v_vacf 
       0    1.0348886    2.0691304            0 
    5000      1.01618  0.010970342    0.3062452 
   10000    1.0210865 0.0018251732    0.3939561 
   15000    1.0201407 -0.0051204578   0.50191967 
   20000    1.0169872  0.032935727   0.54134779 
   25000    1.0117798  -0.01580966     0.615112 
   30000    1.0284167 -0.0089673686   0.71447644 
   35000    1.0072394 -0.027346896   0.70401385 
   40000    1.0180797 -0.024551015   0.74660961 
   45000    1.0221593 -0.0059135592   0.75865906 
   50000    1.0150177  -0.04225538   0.87981449 
   55000    1.0190131 -0.039301263   0.91325887 
   60000    1.0153908  0.068561184   0.90266577 
Loop time of 38.5327 on 2176 procs for 60000 steps with 3200 atoms

Performance: 672675.541 tau/day, 1557.119 timesteps/s
98.3% CPU use with 2176 MPI tasks x 1 OpenMP threads

MPI task timing breakdown:
Section |  min time  |  avg time  |  max time  |%varavg| %total
---------------------------------------------------------------
Pair    | 0.16692    | 0.17462    | 0.25242    |   1.9 |  0.45
Neigh   | 0.064554   | 0.070035   | 0.10585    |   2.1 |  0.18
Comm    | 8.4015     | 9.4372     | 11.404     |  20.4 | 24.49
Output  | 0.010332   | 0.01068    | 0.011584   |   0.1 |  0.03
Modify  | 18.743     | 20.696     | 21.714     |  13.8 | 53.71
Other   |            | 8.144      |            |       | 21.13

Nlocal:    1.47059 ave 4 max 0 min
Histogram: 157 0 936 0 0 987 0 94 0 2
Nghost:    29.9081 ave 38 max 20 min
Histogram: 9 24 120 260 239 579 567 278 84 16
Neighs:    10.284 ave 33 max 0 min
Histogram: 171 403 492 438 388 205 50 19 8 2

Total # of neighbors = 22378
Ave neighs/atom = 6.99313
Neighbor list builds = 7770
Dangerous builds = 0
Total wall time: 0:00:40
endTime:Sun Nov 15 01:49:53 PST 2020


Starting job in random policy..
startTime:Sun Nov 15 01:49:53 PST 2020

LAMMPS (20 Apr 2018)
OMP_NUM_THREADS environment is not set. Defaulting to 1 thread. (../comm.cpp:90)
  using 1 OpenMP thread(s) per MPI task
Lattice spacing in x,y,z = 1.82574 1.82574 1.82574
Created orthogonal box = (0 0 -0.182574) to (73.0297 73.0297 0.182574)
  64 by 34 by 1 MPI processor grid
Created 3200 atoms
  Time spent = 0.013998 secs
Neighbor list info ...
  update every 1 steps, delay 0 steps, check yes
  max neighbors/atom: 2000, page size: 100000
  master list distance cutoff = 2.8
  ghost atom cutoff = 2.8
  binsize = 1.4, bins = 53 53 1
  1 neighbor lists, perpetual/occasional/extra = 1 0 0
  (1) pair lj/cut, perpetual
      attributes: half, newton on
      pair build: half/bin/atomonly/newton
      stencil: half/bin/2d/newton
      bin: standard
Setting up Verlet run ...
  Unit style    : lj
  Current step  : 0
  Time step     : 0.005
Per MPI rank memory allocation (min/avg/max) = 2.702 | 2.797 | 2.952 Mbytes
Step Temp E_pair E_mol TotEng Press 
       0            1     -1.56492            0   -0.5652325   -1.5346995 
    1000    1.0063515   -1.5732592            0  -0.56722209    1.0061204 
    2000   0.95792094   -1.5781469            0  -0.62052531   0.96571772 
    3000   0.98401573    -1.588743            0  -0.60503472   0.97094222 
    4000   0.99740124   -1.5757024            0  -0.57861287   0.99998732 
    5000    1.0348886   -1.6022633            0  -0.56769811   0.97795086 
Loop time of 2.05377 on 2176 procs for 5000 steps with 3200 atoms

Performance: 1051725.127 tau/day, 2434.549 timesteps/s
97.4% CPU use with 2176 MPI tasks x 1 OpenMP threads

MPI task timing breakdown:
Section |  min time  |  avg time  |  max time  |%varavg| %total
---------------------------------------------------------------
Pair    | 0.011882   | 0.014498   | 0.019862   |   0.6 |  0.71
Neigh   | 0.0047512  | 0.0054039  | 0.0081527  |   0.6 |  0.26
Comm    | 0.68238    | 0.8333     | 1.0342     |   7.5 | 40.57
Output  | 0.003752   | 0.0040395  | 0.0042117  |   0.1 |  0.20
Modify  | 0.030712   | 0.033436   | 0.042733   |   0.6 |  1.63
Other   |            | 1.163      |            |       | 56.63

Nlocal:    1.47059 ave 4 max 0 min
Histogram: 156 0 945 0 0 972 0 101 0 2
Nghost:    29.7891 ave 39 max 22 min
Histogram: 19 78 286 246 701 556 148 126 15 1
Neighs:    10.324 ave 33 max 0 min
Histogram: 178 392 523 392 399 200 61 27 1 3

Total # of neighbors = 22465
Ave neighs/atom = 7.02031
Neighbor list builds = 601
Dangerous builds = 0
Setting up Verlet run ...
  Unit style    : lj
  Current step  : 0
  Time step     : 0.005
Per MPI rank memory allocation (min/avg/max) = 3.327 | 3.327 | 3.327 Mbytes
Step Temp c_vacf[4] v_vacf 
       0    1.0348886    2.0691304            0 
    5000      1.01618  0.010970342    0.3062452 
   10000    1.0210865 0.0018251732    0.3939561 
   15000    1.0201407 -0.0051204578   0.50191967 
   20000    1.0169872  0.032935727   0.54134779 
   25000    1.0117798  -0.01580966     0.615112 
   30000    1.0284167 -0.0089673686   0.71447644 
   35000    1.0072394 -0.027346896   0.70401385 
   40000    1.0180797 -0.024551015   0.74660961 
   45000    1.0221593 -0.0059135592   0.75865906 
   50000    1.0150177  -0.04225538   0.87981449 
[...]
Per MPI rank memory allocation (min/avg/max) = 3.327 | 3.327 | 3.327 Mbytes
Step Temp c_vacf[4] v_vacf 
       0    1.0348886    2.0691304            0 
    5000      1.01618  0.010970342    0.3062452 
   10000    1.0210865 0.0018251732    0.3939561 
   15000    1.0201407 -0.0051204578   0.50191967 
   20000    1.0169872  0.032935727   0.54134779 
   25000    1.0117798  -0.01580966     0.615112 
   30000    1.0284167 -0.0089673686   0.71447644 
   35000    1.0072394 -0.027346896   0.70401385 
   40000    1.0180797 -0.024551015   0.74660961 
   45000    1.0221593 -0.0059135592   0.75865906 
   50000    1.0150177  -0.04225538   0.87981449 
   55000    1.0190131 -0.039301263   0.91325887 
   60000    1.0153908  0.068561184   0.90266577 
Loop time of 59.8146 on 2176 procs for 60000 steps with 3200 atoms

Performance: 433338.853 tau/day, 1003.099 timesteps/s
98.9% CPU use with 2176 MPI tasks x 1 OpenMP threads

MPI task timing breakdown:
Section |  min time  |  avg time  |  max time  |%varavg| %total
---------------------------------------------------------------
Pair    | 0.16527    | 0.17499    | 0.25773    |   2.4 |  0.29
Neigh   | 0.064253   | 0.070655   | 0.10785    |   2.2 |  0.12
Comm    | 10.962     | 13.022     | 16.051     |  27.0 | 21.77
Output  | 0.014573   | 0.01602    | 0.018017   |   0.7 |  0.03
Modify  | 31.331     | 34.381     | 36.4       |  16.7 | 57.48
Other   |            | 12.15      |            |       | 20.31

Nlocal:    1.47059 ave 4 max 0 min
Histogram: 157 0 936 0 0 987 0 94 0 2
Nghost:    29.9081 ave 38 max 20 min
Histogram: 9 24 120 260 239 579 567 278 84 16
Neighs:    10.284 ave 33 max 0 min
Histogram: 171 403 492 438 388 205 50 19 8 2

Total # of neighbors = 22378
Ave neighs/atom = 6.99313
Neighbor list builds = 7770
Dangerous builds = 0
Total wall time: 0:01:03
endTime:Sun Nov 15 04:10:20 PST 2020


Starting job in antinedd policy..
startTime:Sun Nov 15 04:10:20 PST 2020

LAMMPS (20 Apr 2018)
OMP_NUM_THREADS environment is not set. Defaulting to 1 thread. (../comm.cpp:90)
  using 1 OpenMP thread(s) per MPI task
Lattice spacing in x,y,z = 1.82574 1.82574 1.82574
Created orthogonal box = (0 0 -0.182574) to (73.0297 73.0297 0.182574)
  64 by 34 by 1 MPI processor grid
Created 3200 atoms
  Time spent = 0.007447 secs
Neighbor list info ...
  update every 1 steps, delay 0 steps, check yes
  max neighbors/atom: 2000, page size: 100000
  master list distance cutoff = 2.8
  ghost atom cutoff = 2.8
  binsize = 1.4, bins = 53 53 1
  1 neighbor lists, perpetual/occasional/extra = 1 0 0
  (1) pair lj/cut, perpetual
      attributes: half, newton on
      pair build: half/bin/atomonly/newton
      stencil: half/bin/2d/newton
      bin: standard
Setting up Verlet run ...
  Unit style    : lj
  Current step  : 0
  Time step     : 0.005
Per MPI rank memory allocation (min/avg/max) = 2.702 | 2.797 | 2.952 Mbytes
Step Temp E_pair E_mol TotEng Press 
       0            1     -1.56492            0   -0.5652325   -1.5346995 
    1000    1.0063515   -1.5732592            0  -0.56722209    1.0061204 
    2000   0.95792094   -1.5781469            0  -0.62052531   0.96571772 
    3000   0.98401573    -1.588743            0  -0.60503472   0.97094222 
    4000   0.99740124   -1.5757024            0  -0.57861287   0.99998732 
    5000    1.0348886   -1.6022633            0  -0.56769811   0.97795086 
Loop time of 2.78767 on 2176 procs for 5000 steps with 3200 atoms

Performance: 774840.662 tau/day, 1793.613 timesteps/s
98.1% CPU use with 2176 MPI tasks x 1 OpenMP threads

MPI task timing breakdown:
Section |  min time  |  avg time  |  max time  |%varavg| %total
---------------------------------------------------------------
Pair    | 0.012017   | 0.014533   | 0.020841   |   0.7 |  0.52
Neigh   | 0.0047307  | 0.005445   | 0.0084524  |   0.6 |  0.20
Comm    | 0.72037    | 1.0087     | 1.2463     |   9.4 | 36.19
Output  | 0.0035818  | 0.0041734  | 0.004451   |   0.2 |  0.15
Modify  | 0.030885   | 0.03351    | 0.045267   |   0.8 |  1.20
Other   |            | 1.721      |            |       | 61.75

Nlocal:    1.47059 ave 4 max 0 min
Histogram: 156 0 945 0 0 972 0 101 0 2
Nghost:    29.7891 ave 39 max 22 min
Histogram: 19 78 286 246 701 556 148 126 15 1
Neighs:    10.324 ave 33 max 0 min
Histogram: 178 392 523 392 399 200 61 27 1 3

Total # of neighbors = 22465
Ave neighs/atom = 7.02031
Neighbor list builds = 601
Dangerous builds = 0
Setting up Verlet run ...
  Unit style    : lj
  Current step  : 0
  Time step     : 0.005
Per MPI rank memory allocation (min/avg/max) = 3.327 | 3.327 | 3.327 Mbytes
Step Temp c_vacf[4] v_vacf 
       0    1.0348886    2.0691304            0 
    5000      1.01618  0.010970342    0.3062452 
   10000    1.0210865 0.0018251732    0.3939561 
   15000    1.0201407 -0.0051204578   0.50191967 
   20000    1.0169872  0.032935727   0.54134779 
   25000    1.0117798  -0.01580966     0.615112 
   30000    1.0284167 -0.0089673686   0.71447644 
   35000    1.0072394 -0.027346896   0.70401385 
   40000    1.0180797 -0.024551015   0.74660961 
   45000    1.0221593 -0.0059135592   0.75865906 
   50000    1.0150177  -0.04225538   0.87981449 
   55000    1.0190131 -0.039301263   0.91325887 
   60000    1.0153908  0.068561184   0.90266577 
Loop time of 69.5764 on 2176 procs for 60000 steps with 3200 atoms

Performance: 372539.855 tau/day, 862.361 timesteps/s
99.0% CPU use with 2176 MPI tasks x 1 OpenMP threads

MPI task timing breakdown:
Section |  min time  |  avg time  |  max time  |%varavg| %total
---------------------------------------------------------------
Pair    | 0.16547    | 0.17552    | 0.28123    |   2.8 |  0.25
Neigh   | 0.065835   | 0.071066   | 0.10862    |   2.3 |  0.10
Comm    | 11.63      | 14.696     | 19.376     |  44.8 | 21.12
Output  | 0.021084   | 0.021955   | 0.023499   |   0.3 |  0.03
Modify  | 36.422     | 41.09      | 44.155     |  26.8 | 59.06
Other   |            | 13.52      |            |       | 19.43

Nlocal:    1.47059 ave 4 max 0 min
Histogram: 157 0 936 0 0 987 0 94 0 2
Nghost:    29.9081 ave 38 max 20 min
Histogram: 9 24 120 260 239 579 567 278 84 16
Neighs:    10.284 ave 33 max 0 min
Histogram: 171 403 492 438 388 205 50 19 8 2

Total # of neighbors = 22378
Ave neighs/atom = 6.99313
Neighbor list builds = 7770
Dangerous builds = 0
Total wall time: 0:01:12
endTime:Sun Nov 15 04:11:41 PST 2020


Starting job in neddNoCong policy..
startTime:Sun Nov 15 04:11:47 PST 2020

LAMMPS (20 Apr 2018)
OMP_NUM_THREADS environment is not set. Defaulting to 1 thread. (../comm.cpp:90)
  using 1 OpenMP thread(s) per MPI task
Lattice spacing in x,y,z = 1.82574 1.82574 1.82574
Created orthogonal box = (0 0 -0.182574) to (73.0297 73.0297 0.182574)
  64 by 34 by 1 MPI processor grid
Created 3200 atoms
  Time spent = 0.00897002 secs
Neighbor list info ...
  update every 1 steps, delay 0 steps, check yes
  max neighbors/atom: 2000, page size: 100000
  master list distance cutoff = 2.8
  ghost atom cutoff = 2.8
  binsize = 1.4, bins = 53 53 1
  1 neighbor lists, perpetual/occasional/extra = 1 0 0
  (1) pair lj/cut, perpetual
      attributes: half, newton on
      pair build: half/bin/atomonly/newton
      stencil: half/bin/2d/newton
      bin: standard
Setting up Verlet run ...
  Unit style    : lj
  Current step  : 0
  Time step     : 0.005
Per MPI rank memory allocation (min/avg/max) = 2.702 | 2.797 | 2.952 Mbytes
Step Temp E_pair E_mol TotEng Press 
       0            1     -1.56492            0   -0.5652325   -1.5346995 
    1000    1.0063515   -1.5732592            0  -0.56722209    1.0061204 
    2000   0.95792094   -1.5781469            0  -0.62052531   0.96571772 
    3000   0.98401573    -1.588743            0  -0.60503472   0.97094222 
    4000   0.99740124   -1.5757024            0  -0.57861287   0.99998732 
    5000    1.0348886   -1.6022633            0  -0.56769811   0.97795086 
Loop time of 1.85179 on 2176 procs for 5000 steps with 3200 atoms

Performance: 1166440.263 tau/day, 2700.093 timesteps/s
97.3% CPU use with 2176 MPI tasks x 1 OpenMP threads

MPI task timing breakdown:
Section |  min time  |  avg time  |  max time  |%varavg| %total
---------------------------------------------------------------
Pair    | 0.012027   | 0.014497   | 0.020035   |   0.6 |  0.78
Neigh   | 0.0047259  | 0.0053955  | 0.0080438  |   0.6 |  0.29
Comm    | 0.6608     | 0.75889    | 0.95817    |   5.6 | 40.98
Output  | 0.0028191  | 0.0029778  | 0.0031521  |   0.1 |  0.16
Modify  | 0.030812   | 0.033384   | 0.042029   |   0.6 |  1.80
Other   |            | 1.037      |            |       | 55.98

Nlocal:    1.47059 ave 4 max 0 min
Histogram: 156 0 945 0 0 972 0 101 0 2
Nghost:    29.7891 ave 39 max 22 min
Histogram: 19 78 286 246 701 556 148 126 15 1
Neighs:    10.324 ave 33 max 0 min
Histogram: 178 392 523 392 399 200 61 27 1 3

Total # of neighbors = 22465
Ave neighs/atom = 7.02031
Neighbor list builds = 601
Dangerous builds = 0
Setting up Verlet run ...
  Unit style    : lj
  Current step  : 0
  Time step     : 0.005
Per MPI rank memory allocation (min/avg/max) = 3.327 | 3.327 | 3.327 Mbytes
Step Temp c_vacf[4] v_vacf 
       0    1.0348886    2.0691304            0 
    5000      1.01618  0.010970342    0.3062452 
   10000    1.0210865 0.0018251732    0.3939561 
   15000    1.0201407 -0.0051204578   0.50191967 
   20000    1.0169872  0.032935727   0.54134779 
   25000    1.0117798  -0.01580966     0.615112 
   30000    1.0284167 -0.0089673686   0.71447644 
   35000    1.0072394 -0.027346896   0.70401385 
   40000    1.0180797 -0.024551015   0.74660961 
   45000    1.0221593 -0.0059135592   0.75865906 
   50000    1.0150177  -0.04225538   0.87981449 
   55000    1.0190131 -0.039301263   0.91325887 
   60000    1.0153908  0.068561184   0.90266577 
Loop time of 41.2832 on 2176 procs for 60000 steps with 3200 atoms

Performance: 627857.620 tau/day, 1453.374 timesteps/s
98.5% CPU use with 2176 MPI tasks x 1 OpenMP threads

MPI task timing breakdown:
Section |  min time  |  avg time  |  max time  |%varavg| %total
---------------------------------------------------------------
Pair    | 0.16566    | 0.17455    | 0.24502    |   2.1 |  0.42
Neigh   | 0.065351   | 0.07023    | 0.1056     |   2.2 |  0.17
Comm    | 8.6417     | 9.8752     | 11.798     |  18.0 | 23.92
Output  | 0.010964   | 0.011244   | 0.012131   |   0.1 |  0.03
Modify  | 20.366     | 22.295     | 23.594     |  12.2 | 54.01
Other   |            | 8.857      |            |       | 21.45

Nlocal:    1.47059 ave 4 max 0 min
Histogram: 157 0 936 0 0 987 0 94 0 2
Nghost:    29.9081 ave 38 max 20 min
Histogram: 9 24 120 260 239 579 567 278 84 16
Neighs:    10.284 ave 33 max 0 min
Histogram: 171 403 492 438 388 205 50 19 8 2

Total # of neighbors = 22378
Ave neighs/atom = 6.99313
Neighbor list builds = 7770
Dangerous builds = 0
Total wall time: 0:00:43
endTime:Sun Nov 15 04:12:42 PST 2020


Starting job in fewerNoCong policy..
startTime:Sun Nov 15 04:12:42 PST 2020

LAMMPS (20 Apr 2018)
OMP_NUM_THREADS environment is not set. Defaulting to 1 thread. (../comm.cpp:90)
  using 1 OpenMP thread(s) per MPI task
Lattice spacing in x,y,z = 1.82574 1.82574 1.82574
Created orthogonal box = (0 0 -0.182574) to (73.0297 73.0297 0.182574)
  64 by 34 by 1 MPI processor grid
Created 3200 atoms
  Time spent = 0.00880694 secs
Neighbor list info ...
  update every 1 steps, delay 0 steps, check yes
  max neighbors/atom: 2000, page size: 100000
  master list distance cutoff = 2.8
  ghost atom cutoff = 2.8
  binsize = 1.4, bins = 53 53 1
  1 neighbor lists, perpetual/occasional/extra = 1 0 0
  (1) pair lj/cut, perpetual
      attributes: half, newton on
      pair build: half/bin/atomonly/newton
      stencil: half/bin/2d/newton
      bin: standard
Setting up Verlet run ...
  Unit style    : lj
  Current step  : 0
  Time step     : 0.005
Per MPI rank memory allocation (min/avg/max) = 2.702 | 2.797 | 2.952 Mbytes
Step Temp E_pair E_mol TotEng Press 
       0            1     -1.56492            0   -0.5652325   -1.5346995 
    1000    1.0063515   -1.5732592            0  -0.56722209    1.0061204 
    2000   0.95792094   -1.5781469            0  -0.62052531   0.96571772 
    3000   0.98401573    -1.588743            0  -0.60503472   0.97094222 
    4000   0.99740124   -1.5757024            0  -0.57861287   0.99998732 
    5000    1.0348886   -1.6022633            0  -0.56769811   0.97795086 
Loop time of 1.95066 on 2176 procs for 5000 steps with 3200 atoms

Performance: 1107319.024 tau/day, 2563.238 timesteps/s
97.5% CPU use with 2176 MPI tasks x 1 OpenMP threads

MPI task timing breakdown:
Section |  min time  |  avg time  |  max time  |%varavg| %total
---------------------------------------------------------------
Pair    | 0.011943   | 0.014479   | 0.019323   |   0.6 |  0.74
Neigh   | 0.0047009  | 0.0053824  | 0.0080078  |   0.6 |  0.28
Comm    | 0.69519    | 0.78367    | 0.94372    |   4.3 | 40.17
Output  | 0.0029271  | 0.0033206  | 0.003525   |   0.2 |  0.17
Modify  | 0.030899   | 0.033398   | 0.041563   |   0.6 |  1.71
Other   |            | 1.11       |            |       | 56.92

Nlocal:    1.47059 ave 4 max 0 min
Histogram: 156 0 945 0 0 972 0 101 0 2
Nghost:    29.7891 ave 39 max 22 min
Histogram: 19 78 286 246 701 556 148 126 15 1
Neighs:    10.324 ave 33 max 0 min
Histogram: 178 392 523 392 399 200 61 27 1 3

Total # of neighbors = 22465
Ave neighs/atom = 7.02031
Neighbor list builds = 601
Dangerous builds = 0
Setting up Verlet run ...
  Unit style    : lj
  Current step  : 0
  Time step     : 0.005
Per MPI rank memory allocation (min/avg/max) = 3.327 | 3.327 | 3.327 Mbytes
Step Temp c_vacf[4] v_vacf 
       0    1.0348886    2.0691304            0 
    5000      1.01618  0.010970342    0.3062452 
   10000    1.0210865 0.0018251732    0.3939561 
   15000    1.0201407 -0.0051204578   0.50191967 
   20000    1.0169872  0.032935727   0.54134779 
   25000    1.0117798  -0.01580966     0.615112 
   30000    1.0284167 -0.0089673686   0.71447644 
   35000    1.0072394 -0.027346896   0.70401385 
   40000    1.0180797 -0.024551015   0.74660961 
   45000    1.0221593 -0.0059135592   0.75865906 
   50000    1.0150177  -0.04225538   0.87981449 
   55000    1.0190131 -0.039301263   0.91325887 
   60000    1.0153908  0.068561184   0.90266577 
Loop time of 39.1431 on 2176 procs for 60000 steps with 3200 atoms

Performance: 662185.733 tau/day, 1532.837 timesteps/s
98.4% CPU use with 2176 MPI tasks x 1 OpenMP threads

MPI task timing breakdown:
Section |  min time  |  avg time  |  max time  |%varavg| %total
---------------------------------------------------------------
Pair    | 0.16532    | 0.17418    | 0.24236    |   1.9 |  0.44
Neigh   | 0.064646   | 0.069892   | 0.10641    |   2.1 |  0.18
Comm    | 8.6773     | 9.5878     | 11.304     |  13.3 | 24.49
Output  | 0.010635   | 0.011007   | 0.011868   |   0.2 |  0.03
Modify  | 19.097     | 20.868     | 21.805     |   9.2 | 53.31
Other   |            | 8.432      |            |       | 21.54

Nlocal:    1.47059 ave 4 max 0 min
Histogram: 157 0 936 0 0 987 0 94 0 2
Nghost:    29.9081 ave 38 max 20 min
Histogram: 9 24 120 260 239 579 567 278 84 16
Neighs:    10.284 ave 33 max 0 min
Histogram: 171 403 492 438 388 205 50 19 8 2

Total # of neighbors = 22378
Ave neighs/atom = 6.99313
Neighbor list builds = 7770
Dangerous builds = 0
Total wall time: 0:00:41
endTime:Sun Nov 15 04:13:39 PST 2020


====================
iteration 11
Starting job in nedd policy..
startTime:Sun Nov 15 04:22:01 PST 2020

LAMMPS (20 Apr 2018)
OMP_NUM_THREADS environment is not set. Defaulting to 1 thread. (../comm.cpp:90)
  using 1 OpenMP thread(s) per MPI task
Lattice spacing in x,y,z = 1.82574 1.82574 1.82574
Created orthogonal box = (0 0 -0.182574) to (73.0297 73.0297 0.182574)
  64 by 34 by 1 MPI processor grid
Created 3200 atoms
  Time spent = 0.00602603 secs
Neighbor list info ...
  update every 1 steps, delay 0 steps, check yes
  max neighbors/atom: 2000, page size: 100000
  master list distance cutoff = 2.8
  ghost atom cutoff = 2.8
  binsize = 1.4, bins = 53 53 1
  1 neighbor lists, perpetual/occasional/extra = 1 0 0
  (1) pair lj/cut, perpetual
      attributes: half, newton on
      pair build: half/bin/atomonly/newton
      stencil: half/bin/2d/newton
      bin: standard
Setting up Verlet run ...
  Unit style    : lj
  Current step  : 0
  Time step     : 0.005
Per MPI rank memory allocation (min/avg/max) = 2.702 | 2.797 | 2.952 Mbytes
Step Temp E_pair E_mol TotEng Press 
       0            1     -1.56492            0   -0.5652325   -1.5346995 
    1000    1.0063515   -1.5732592            0  -0.56722209    1.0061204 
    2000   0.95792094   -1.5781469            0  -0.62052531   0.96571772 
    3000   0.98401573    -1.588743            0  -0.60503472   0.97094222 
    4000   0.99740124   -1.5757024            0  -0.57861287   0.99998732 
    5000    1.0348886   -1.6022633            0  -0.56769811   0.97795086 
Loop time of 1.67804 on 2176 procs for 5000 steps with 3200 atoms

Performance: 1287212.354 tau/day, 2979.658 timesteps/s
96.9% CPU use with 2176 MPI tasks x 1 OpenMP threads

MPI task timing breakdown:
Section |  min time  |  avg time  |  max time  |%varavg| %total
---------------------------------------------------------------
Pair    | 0.012082   | 0.01456    | 0.020654   |   0.6 |  0.87
Neigh   | 0.0046599  | 0.005374   | 0.0081644  |   0.6 |  0.32
Comm    | 0.63836    | 0.72158    | 0.86098    |   4.1 | 43.00
Output  | 0.0039363  | 0.0041949  | 0.0043862  |   0.2 |  0.25
Modify  | 0.03103    | 0.033283   | 0.043045   |   0.6 |  1.98
Other   |            | 0.8991     |            |       | 53.58

Nlocal:    1.47059 ave 4 max 0 min
Histogram: 156 0 945 0 0 972 0 101 0 2
Nghost:    29.7891 ave 39 max 22 min
Histogram: 19 78 286 246 701 556 148 126 15 1
Neighs:    10.324 ave 33 max 0 min
Histogram: 178 392 523 392 399 200 61 27 1 3

Total # of neighbors = 22465
Ave neighs/atom = 7.02031
Neighbor list builds = 601
Dangerous builds = 0
Setting up Verlet run ...
  Unit style    : lj
  Current step  : 0
  Time step     : 0.005
Per MPI rank memory allocation (min/avg/max) = 3.327 | 3.327 | 3.327 Mbytes
Step Temp c_vacf[4] v_vacf 
       0    1.0348886    2.0691304            0 
    5000      1.01618  0.010970342    0.3062452 
   10000    1.0210865 0.0018251732    0.3939561 
   15000    1.0201407 -0.0051204578   0.50191967 
   20000    1.0169872  0.032935727   0.54134779 
   25000    1.0117798  -0.01580966     0.615112 
   30000    1.0284167 -0.0089673686   0.71447644 
   35000    1.0072394 -0.027346896   0.70401385 
   40000    1.0180797 -0.024551015   0.74660961 
   45000    1.0221593 -0.0059135592   0.75865906 
   50000    1.0150177  -0.04225538   0.87981449 
   55000    1.0190131 -0.039301263   0.91325887 
   60000    1.0153908  0.068561184   0.90266577 
Loop time of 32.2312 on 2176 procs for 60000 steps with 3200 atoms

Performance: 804189.444 tau/day, 1861.550 timesteps/s
98.1% CPU use with 2176 MPI tasks x 1 OpenMP threads

MPI task timing breakdown:
Section |  min time  |  avg time  |  max time  |%varavg| %total
---------------------------------------------------------------
Pair    | 0.16573    | 0.17509    | 0.24124    |   1.7 |  0.54
Neigh   | 0.065066   | 0.069675   | 0.10477    |   2.1 |  0.22
Comm    | 7.8334     | 8.5507     | 10.019     |  12.8 | 26.53
Output  | 0.010314   | 0.010649   | 0.011456   |   0.1 |  0.03
Modify  | 15.159     | 16.596     | 17.313     |   9.2 | 51.49
Other   |            | 6.829      |            |       | 21.19

Nlocal:    1.47059 ave 4 max 0 min
Histogram: 157 0 936 0 0 987 0 94 0 2
Nghost:    29.9081 ave 38 max 20 min
Histogram: 9 24 120 260 239 579 567 278 84 16
Neighs:    10.284 ave 33 max 0 min
Histogram: 171 403 492 438 388 205 50 19 8 2

Total # of neighbors = 22378
Ave neighs/atom = 6.99313
Neighbor list builds = 7770
Dangerous builds = 0
Total wall time: 0:00:34
endTime:Sun Nov 15 04:22:45 PST 2020


Starting job in lowerRouterStall policy..
startTime:Sun Nov 15 04:22:45 PST 2020

