Starting..
====================
iteration 0
Starting job in nedd policy..
startTime:Sat Jan 23 15:09:30 PST 2021

  Input file(s): simple-H2O.xml 

=====================================================
                    QMCPACK 3.7.0

       (c) Copyright 2003-  QMCPACK developers

                    Please cite:
 J. Kim et al. J. Phys. Cond. Mat. 30 195901 (2018)
      https://doi.org/10.1088/1361-648X/aab9c3

  Git branch: HEAD
  Last git commit: bc47a435682751c26c2695a005684d95f700bebb-dirty
  Last git commit date: Fri Mar 29 14:11:40 2019 -0500
  Last git commit subject: Merge pull request #1520 from QMCPACK/rc_370
=====================================================
  Global options 

  Total number of MPI ranks = 2176
  Number of MPI groups      = 1
  MPI group ID              = 0
  Number of ranks in group  = 2176
  MPI ranks per node        = 68
  OMP 1st level threads     = 4
  OMP nested threading disabled or only 1 thread on the 2nd level

  Precision used in this calculation, see definitions in the manual:
  Base precision      = double
  Full precision      = double

  Structure-of-arrays (SoA) optimization enabled

  Input XML = simple-H2O.xml

  Project = H2O
  date    = 2021-01-23 15:09:42 PST
  host    = nid02773

 Random Number
 -------------
  Offset for the random number seeds based on time: 182

  Range of prime numbers to use as seeds over processors and threads = 1097-92003


 Particle Set 
 ------------
  Name: e
  All the species have the same mass 1
  Particle set size: 8

 Particle Set 
 ------------
  Name: ion0
  All the species have the same mass 1
  Particle set size: 3

 Wavefunction setup: 
 ------------------- 
  Name: psi0
  Created SPOSet builder named 'LCAOBSet' of type molecularorbital
  LCAO: SoaAtomicBasisSet<MultiQuintic,0>

  Distance table for similar particles (A-A):
    source/target: e
    Using structure-of-arrays (SoA) data layout
    Distance computations use open boundary conditions in 3D.


  Distance table for dissimilar particles (A-B):
    source: ion0  target: e
    Using structure-of-arrays (SoA) data layout
    Distance computations use open boundary conditions in 3D.

  AO BasisSet for O
   Angular momentum expanded in cartesian functions x^lx y^ly z^lz according to Gamess
Using log grid with default values: ri = 1e-06 rf = 100 npts = 1001
   R(n,l,m,s) 0 0 0 0
   R(n,l,m,s) 1 0 0 0
   R(n,l,m,s) 2 0 0 0
   R(n,l,m,s) 3 1 0 0
   R(n,l,m,s) 4 1 0 0
   R(n,l,m,s) 5 1 0 0
   R(n,l,m,s) 6 2 0 0
   R(n,l,m,s) 7 2 0 0
   R(n,l,m,s) 8 3 0 0
Expanding Ylm (angular function) according to Gamess using cartesian gaussians
Adding 1 cartesian gaussian orbitals for l= 0
Adding 1 cartesian gaussian orbitals for l= 0
Adding 1 cartesian gaussian orbitals for l= 0
Adding 3 cartesian gaussian orbitals for l= 1
Adding 3 cartesian gaussian orbitals for l= 1
Adding 3 cartesian gaussian orbitals for l= 1
Adding 6 cartesian gaussian orbitals for l= 2
Adding 6 cartesian gaussian orbitals for l= 2
Adding 10 cartesian gaussian orbitals for l= 3
  Setting cutoff radius 10.1859

   Maximum Angular Momentum  = 3
   Number of Radial functors = 9
   Basis size                = 34

  AO BasisSet for H
   Angular momentum expanded in cartesian functions x^lx y^ly z^lz according to Gamess
Using log grid with default values: ri = 1e-06 rf = 100 npts = 1001
   R(n,l,m,s) 0 0 0 0
   R(n,l,m,s) 1 0 0 0
   R(n,l,m,s) 2 0 0 0
   R(n,l,m,s) 3 1 0 0
   R(n,l,m,s) 4 1 0 0
   R(n,l,m,s) 5 2 0 0
Expanding Ylm (angular function) according to Gamess using cartesian gaussians
Adding 1 cartesian gaussian orbitals for l= 0
Adding 1 cartesian gaussian orbitals for l= 0
Adding 1 cartesian gaussian orbitals for l= 0
Adding 3 cartesian gaussian orbitals for l= 1
Adding 3 cartesian gaussian orbitals for l= 1
Adding 6 cartesian gaussian orbitals for l= 2
  Setting cutoff radius 19.4089

   Maximum Angular Momentum  = 2
   Number of Radial functors = 6
   Basis size                = 15

Reuse SPOSetBuilder "LCAOBSet" type MolecularOrbital
  Building SPOSet '' with '' basis set.
Reuse SPOSetBuilder "LCAOBSet" type MolecularOrbital
  Building SPOSet '' with '' basis set.
  Creating a determinant updet group=0 sposet=updet
  Reusing a SPO set updet
Using DiracDeterminant with DelayedUpdate engine
Using rank-1 Sherman-Morrison Fahy update

  Creating a determinant downdet group=1 sposet=downdet
  Reusing a SPO set downdet
Using DiracDeterminant with DelayedUpdate engine
Using rank-1 Sherman-Morrison Fahy update

  FermionWF = SlaterDet
  RadialJastrowBuilder adds a functor with cusp = -0.25
 size = 10 parameters 
 cusp = -0.25
 rcut = 10
Parameter     Name      Value
uu_0 0.029047 1 1  ON 0
uu_1 -0.100418 1 1  ON 1
uu_2 -0.17527 1 1  ON 2
uu_3 -0.223258 1 1  ON 3
uu_4 -0.272803 1 1  ON 4
uu_5 -0.325329 1 1  ON 5
uu_6 -0.362453 1 1  ON 6
uu_7 -0.395822 1 1  ON 7
uu_8 -0.426858 1 1  ON 8
uu_9 -0.439453 1 1  ON 9
  RadialJastrowBuilder adds a functor with cusp = -0.5
 size = 10 parameters 
 cusp = -0.5
 rcut = 10
Parameter     Name      Value
ud_0 0.930669 1 1  ON 0
ud_1 0.628359 1 1  ON 1
ud_2 0.463024 1 1  ON 2
ud_3 0.375585 1 1  ON 3
ud_4 0.333251 1 1  ON 4
ud_5 0.297451 1 1  ON 5
ud_6 0.255069 1 1  ON 6
ud_7 0.197016 1 1  ON 7
ud_8 0.135704 1 1  ON 8
ud_9 0.11181 1 1  ON 9
 size = 10 parameters 
 cusp = 0
 rcut = 10
Parameter     Name      Value
eO_0 -4.0158 1 1  ON 0
eO_1 -3.62877 1 1  ON 1
eO_2 -2.75734 1 1  ON 2
eO_3 -1.83881 1 1  ON 3
eO_4 -1.15124 1 1  ON 4
eO_5 -0.462677 1 1  ON 5
eO_6 -0.212032 1 1  ON 6
eO_7 -0.139318 1 1  ON 7
eO_8 0.513465 1 1  ON 8
eO_9 6.44894 1 1  ON 9
 size = 10 parameters 
 cusp = 0
 rcut = 10
Parameter     Name      Value
eH_0 -0.335752 1 1  ON 0
eH_1 -0.295754 1 1  ON 1
eH_2 -0.27382 1 1  ON 2
eH_3 -0.226322 1 1  ON 3
eH_4 -0.176979 1 1  ON 4
eH_5 -0.176265 1 1  ON 5
eH_6 -0.189957 1 1  ON 6
eH_7 -0.181647 1 1  ON 7
eH_8 -0.038387 1 1  ON 8
eH_9 0.345305 1 1  ON 9
Parameter     Name      Value
uuO_0 8.22771e-06 1 1  ON 0
uuO_1 2.48082e-06 1 1  ON 1
uuO_2 -5.35407e-06 1 1  ON 2
uuO_3 -1.11264e-05 1 1  ON 3
uuO_4 -2.20801e-06 1 1  ON 4
uuO_5 5.21312e-06 1 1  ON 5
uuO_6 -1.53787e-05 1 1  ON 6
uuO_7 8.89903e-06 1 1  ON 7
uuO_8 6.25726e-06 1 1  ON 8
uuO_9 3.21458e-06 1 1  ON 9
uuO_10 -7.71674e-06 1 1  ON 10
uuO_11 -5.27568e-06 1 1  ON 11
uuO_12 -1.77846e-06 1 1  ON 12
uuO_13 7.92623e-06 1 1  ON 13
uuO_14 1.76741e-06 1 1  ON 14
uuO_15 5.45136e-08 1 1  ON 15
uuO_16 2.80142e-06 1 1  ON 16
uuO_17 4.57728e-06 1 1  ON 17
uuO_18 7.63461e-06 1 1  ON 18
uuO_19 -9.51067e-07 1 1  ON 19
uuO_20 -2.34413e-06 1 1  ON 20
uuO_21 -1.87878e-06 1 1  ON 21
uuO_22 3.93736e-07 1 1  ON 22
uuO_23 5.06535e-07 1 1  ON 23
uuO_24 5.08672e-07 1 1  ON 24
uuO_25 -1.35877e-07 1 1  ON 25
Parameter     Name      Value
udO_0 -6.93953e-06 1 1  ON 0
udO_1 2.63417e-05 1 1  ON 1
udO_2 4.04608e-05 1 1  ON 2
udO_3 -8.00268e-06 1 1  ON 3
udO_4 -5.3968e-06 1 1  ON 4
udO_5 6.69737e-06 1 1  ON 5
udO_6 5.43395e-05 1 1  ON 6
udO_7 -6.33685e-06 1 1  ON 7
udO_8 3.68047e-05 1 1  ON 8
udO_9 -2.99606e-05 1 1  ON 9
udO_10 1.99366e-06 1 1  ON 10
udO_11 -3.22271e-05 1 1  ON 11
udO_12 -8.09167e-06 1 1  ON 12
udO_13 4.15739e-06 1 1  ON 13
udO_14 4.84394e-06 1 1  ON 14
udO_15 3.56365e-07 1 1  ON 15
udO_16 3.78633e-05 1 1  ON 16
udO_17 -1.41834e-05 1 1  ON 17
udO_18 2.28269e-05 1 1  ON 18
udO_19 1.29239e-06 1 1  ON 19
udO_20 -4.93581e-06 1 1  ON 20
udO_21 -3.05254e-06 1 1  ON 21
udO_22 9.87029e-08 1 1  ON 22
udO_23 1.84429e-06 1 1  ON 23
udO_24 2.97056e-07 1 1  ON 24
udO_25 -4.3643e-08 1 1  ON 25
Parameter     Name      Value
uuH_0 1.21983e-05 1 1  ON 0
uuH_1 1.70285e-05 1 1  ON 1
uuH_2 -1.60944e-05 1 1  ON 2
uuH_3 -1.21461e-05 1 1  ON 3
uuH_4 5.89794e-08 1 1  ON 4
uuH_5 -7.84971e-07 1 1  ON 5
uuH_6 7.75018e-06 1 1  ON 6
uuH_7 -2.74556e-05 1 1  ON 7
uuH_8 -1.37775e-05 1 1  ON 8
uuH_9 -1.14428e-05 1 1  ON 9
uuH_10 -1.06388e-05 1 1  ON 10
uuH_11 2.73117e-05 1 1  ON 11
uuH_12 8.30376e-07 1 1  ON 12
uuH_13 1.58423e-05 1 1  ON 13
uuH_14 -2.02534e-06 1 1  ON 14
uuH_15 1.23654e-07 1 1  ON 15
uuH_16 1.05822e-05 1 1  ON 16
uuH_17 1.77824e-05 1 1  ON 17
uuH_18 -2.15364e-05 1 1  ON 18
uuH_19 2.19459e-06 1 1  ON 19
uuH_20 -8.9199e-06 1 1  ON 20
uuH_21 3.22949e-06 1 1  ON 21
uuH_22 -5.14014e-07 1 1  ON 22
uuH_23 2.92814e-06 1 1  ON 23
uuH_24 -7.97265e-07 1 1  ON 24
uuH_25 1.41116e-07 1 1  ON 25
Parameter     Name      Value
udH_0 -2.54349e-06 1 1  ON 0
udH_1 -8.33732e-06 1 1  ON 1
udH_2 3.04386e-06 1 1  ON 2
udH_3 -3.54249e-06 1 1  ON 3
udH_4 -2.70133e-06 1 1  ON 4
udH_5 1.45878e-06 1 1  ON 5
udH_6 7.95043e-06 1 1  ON 6
udH_7 -1.87033e-05 1 1  ON 7
udH_8 -2.24168e-06 1 1  ON 8
udH_9 -4.86877e-06 1 1  ON 9
udH_10 -6.17441e-06 1 1  ON 10
udH_11 1.51731e-05 1 1  ON 11
udH_12 -9.52902e-07 1 1  ON 12
udH_13 9.6868e-06 1 1  ON 13
udH_14 -1.64005e-06 1 1  ON 14
udH_15 2.57667e-07 1 1  ON 15
udH_16 1.39257e-05 1 1  ON 16
udH_17 8.67619e-06 1 1  ON 17
udH_18 -1.64788e-05 1 1  ON 18
udH_19 2.49493e-06 1 1  ON 19
udH_20 -7.72623e-06 1 1  ON 20
udH_21 3.43106e-06 1 1  ON 21
udH_22 -6.6016e-07 1 1  ON 22
udH_23 2.3902e-06 1 1  ON 23
udH_24 -9.16932e-07 1 1  ON 24
udH_25 1.90216e-07 1 1  ON 25
  QMCHamiltonian::addOperator Kinetic to H, physical Hamiltonian 
  QMCHamiltonian::addOperator ElecElec to H, physical Hamiltonian 
QMCHamiltonian::addOperatorType added type coulomb named ElecElec

  ECPotential builder for pseudopotential 

  Adding pseudopotential for O
   Linear grid  ri=0 rf=10 npts = 10001
    ECPComponentBuilder::buildSemiLocalAndLocal 
    Assuming Hartree unit
   Number of angular momentum channels 2
   Maximum angular momentum channel 1
   Creating a Linear Grid Rmax=1.31
  Using global grid with delta = 0.001
   Making L=1 a local potential with a radial cutoff of 9.999
    Non-local pseudopotential parameters
    Maximum angular mementum = 0
    Number of non-local channels = 1
       l(0)=0
    Cutoff radius = 1.31
    Spherical grids and weights: 
                        1                 0                 0       0.08333333333
                       -1   1.224646799e-16                 0       0.08333333333
             0.4472135955       0.894427191                 0       0.08333333333
            -0.4472135955      0.7236067977      0.5257311121       0.08333333333
             0.4472135955      0.2763932023      0.8506508084       0.08333333333
            -0.4472135955     -0.2763932023      0.8506508084       0.08333333333
             0.4472135955     -0.7236067977      0.5257311121       0.08333333333
            -0.4472135955      -0.894427191   1.095357397e-16       0.08333333333
             0.4472135955     -0.7236067977     -0.5257311121       0.08333333333
            -0.4472135955     -0.2763932023     -0.8506508084       0.08333333333
             0.4472135955      0.2763932023     -0.8506508084       0.08333333333
            -0.4472135955      0.7236067977     -0.5257311121       0.08333333333
    Maximum cutoff radius 1.31

  Adding pseudopotential for H
   Linear grid  ri=0 rf=10 npts = 10001
    ECPComponentBuilder::buildSemiLocalAndLocal 
    Assuming Hartree unit
    Only one vps is found. Set the local component=0
   Number of angular momentum channels 1
   Maximum angular momentum channel 0
   Creating a Linear Grid Rmax=1.17
  Using global grid with delta = 0.001
   Making L=0 a local potential with a radial cutoff of 9.999
  QMCHamiltonian::addOperator LocalECP to H, physical Hamiltonian 

  Using NonLocalECP potential 
    Maximum grid on a sphere for NonLocalECPotential: 12
  QMCHamiltonian::addOperator NonLocalECP to H, physical Hamiltonian 
QMCHamiltonian::addOperatorType added type pseudo named ELEMENT-ECP

  Distance table for similar particles (A-A):
    source/target: ion0
    Using structure-of-arrays (SoA) data layout
    Distance computations use open boundary conditions in 3D.

  QMCHamiltonian::addOperator IonIon to H, physical Hamiltonian 
QMCHamiltonian::addOperatorType added type coulomb named IonIon

  QMCHamiltonian::add2WalkerProperty added
    5 to P::PropertyList 
    0 to P::Collectables 
    starting Index of the observables in P::PropertyList = 9
<init source="ion0" target="e">
</init>
ParticleSetPool::randomize 
  Initialization Execution time = 1.588 secs
=========================================================
 Summary of QMC systems 
=========================================================
ParticleSetPool has: 

  ParticleSet e : 0 4 8 

    8

    u  4.4497780564e-01  4.3073810525e-01  3.7470181746e-01
    u  2.2893650069e-01  5.2120064631e-01 -4.4707938866e-01
    u -3.2098226210e-01  2.3312367344e-01 -6.0544674013e-01
    u -3.4764249419e-02 -8.3047643661e-01  7.0498721412e-01
    d -5.0195670523e-01 -3.1088986968e-01 -4.1872302282e-01
    d  2.7559165161e-01 -6.4128706363e-01 -1.9168244159e-01
    d -2.7682392773e-01  6.1047609725e-01  2.7318393539e-01
    d  4.7407717682e-01  1.4228570571e+00  1.6547979541e+00

  ParticleSet ion0 : 0 1 3 

    3

    O  0.0000000000e+00  0.0000000000e+00  0.0000000000e+00
    H  0.0000000000e+00 -1.4308249289e+00  1.1078707576e+00
    H  0.0000000000e+00  1.4308249289e+00  1.1078707576e+00

  Hamiltonian h0
  Kinetic         Kinetic energy
  ElecElec        CoulombAA source/target e

  LocalECP        LocalECPotential: ion0
  NonLocalECP     NonLocalECPotential: ion0
  IonIon          CoulombAA source/target ion0


=========================================================
  Start VMC
  File Root H2O.s001 append = no 
=========================================================
  Adding 4 walkers to 0 existing sets
  Total number of walkers: 8.7040000000e+03
  Total weight: 8.7040000000e+03
  Resetting Properties of the walkers 1 x 14

<vmc function="put">
  qmc_counter=0  my_counter=0
  time step      = 3.0000000000e-01
  blocks         = 1
  steps          = 64
  substeps       = 5
  current        = 0
  target samples = 5.5705600000e+05
  walkers/mpi    = 4

  stepsbetweensamples = 1
<parameter name="blocks" condition="int">1</parameter>
<parameter name="blocks_between_recompute" condition="int">0</parameter>
<parameter name="check_properties" condition="int">100</parameter>
<parameter name="checkproperties" condition="int">100</parameter>
<parameter name="current" condition="int">0</parameter>
<parameter name="dmcwalkersperthread" condition="real">6.4000000000e+01</parameter>
<parameter name="maxcpusecs" condition="real">3.6000000000e+05</parameter>
<parameter name="record_configs" condition="int">0</parameter>
<parameter name="record_walkers" condition="int">1</parameter>
<parameter name="recordconfigs" condition="int">0</parameter>
<parameter name="recordwalkers" condition="int">1</parameter>
<parameter name="rewind" condition="int">0</parameter>
<parameter name="samples" condition="real">5.5705600000e+05</parameter>
<parameter name="samplesperthread" condition="real">6.4000000000e+01</parameter>
<parameter name="steps" condition="int">64</parameter>
<parameter name="stepsbetweensamples" condition="int">1</parameter>
<parameter name="store_configs" condition="int">0</parameter>
<parameter name="storeconfigs" condition="int">0</parameter>
<parameter name="sub_steps" condition="int">5</parameter>
<parameter name="substeps" condition="int">5</parameter>
<parameter name="tau" condition="au">3.0000000000e-01</parameter>
<parameter name="time_step" condition="au">3.0000000000e-01</parameter>
<parameter name="timestep" condition="au">3.0000000000e-01</parameter>
<parameter name="use_drift" condition="string">no</parameter>
<parameter name="usedrift" condition="string">no</parameter>
<parameter name="walkers" condition="int">4</parameter>
<parameter name="warmup_steps" condition="int">100</parameter>
<parameter name="warmupsteps" condition="int">100</parameter>
  DumpConfig==false Nothing (configurations, state) will be saved.
  Walker Samples are dumped every 1 steps.
</vmc>
  CloneManager::makeClones makes 4 clones for W/Psi/H.
  Cloning methods for both Psi and H are used
===== Memory Usage before cloning =====
Available memory on node 0, free + buffers : 90738 MB
Memory footprint by rank 0 on node 0       : 57 MB
==================================================
===== Memory Usage after cloning =====
Available memory on node 0, free + buffers : 90730 MB
Memory footprint by rank 0 on node 0       : 59 MB
==================================================
  Initial partition of walkers 0 1 2 3 4 

  Using Particle by Particle moves
  Walker moves without drift
  Total Sample Size   =557056
  Walker distribution on root = 0 1 2 3 4 
  Using Locality Approximation
===== Memory Usage after the buffer registration =====
Available memory on node 0, free + buffers : 89333 MB
Memory footprint by rank 0 on node 0       : 79 MB
==================================================
  Anonymous Buffer size per walker : 2912 Bytes.
MEMORY increase 0 MB VMC::resetRun
====================================================
  SimpleFixedNodeBranch::finalize after a VMC block
    QMC counter        = 0
    time step          = 0.3
    reference energy   = -17.2427
    reference variance = 0.198495
====================================================
  QMC Execution time = 2.0010e+00 secs

=========================================================
  Start DMC
  File Root H2O.s002 append = no 
=========================================================
Using existing walkers 
  Resetting Properties of the walkers 1 x 14
  EstimatorManagerBase::add replace LocalEnergy estimator.
  Cannot make clones again. Use existing 4 clones
  Total number of walkers: 5.5706e+05
  Total weight: 5.5706e+05
  Creating WalkerController: target  number of walkers = 557056
  Using WalkerControlMPI for dynamic population control.
  START ALL OVER 
  WalkerControlBase parameters 
    maxCopy = 2
    Max Walkers per MPI rank 513
    Min Walkers per MPI rank 52
    Using non-blocking send/recv
  QMC counter      = 1
  time step        = 5.0000e-03
  effective time step = 5.0000e-03
  trial energy     = -1.7243e+01
  reference energy = -1.7243e+01
  Feedback = 1.0000e+00
  reference variance = 1.9850e-01
  target walkers = 557056
  branching cutoff scheme classic
  branch cutoff = 5.0000e+01 7.5000e+01
  Max and minimum walkers per node= 513 52
  QMC Status (BranchMode) = 0000001101
  Initial partition of walkers on a node: 0 64 128 192 256 
  Updates by particle-by-particle moves
  DMC moves are rejected when a node crossing is detected
  Using Non-local T-moves v0, M. Casula, PRB 74, 161102(R) (2006)
===== Memory Usage after the buffer registration =====
Available memory on node 0, free + buffers : 89280 MB
Memory footprint by rank 0 on node 0       : 81 MB
==================================================
SimpleFixedNodeBranch::checkParameters 
  Average Energy of a population  = -17.248
  Energy Variance = 0.239399

  Fluctuating population
  Persistent walkers are killed after 1 MC sweeps
  BranchInterval = 1
  Steps per block = 3
  Number of blocks = 100

  DMC Engine Initialization = 1.6780e-01 secs

 Warmup is completed after 100

  TauEff     = 4.9776e-03
 TauEff/Tau = 9.9552e-01
  Etrial     = -1.7265e+01
 Running average of energy = -1.7257e+01
                  Variance = 2.4296e-01
branch cutoff = 1.0000e+01 1.5000e+01
====================================================
  SimpleFixedNodeBranch::finalize after a DMC block
    QMC counter                   = 1
    time step                     = 0.005
    effective time step           = 0.00497758
    trial energy                  = -17.2596
    reference energy              = -17.2605
    reference variance            = 0.242963
    target walkers                = 557056
    branch cutoff                 = 10 15
    Max and minimum walkers per node= 513 52
    Feedback                      = 1
    QMC Status (BranchMode)       = 0000001111
====================================================
  QMC Execution time = 7.0644e+01 secs
  Total Execution time = 7.2684e+01 secs

=========================================================
  A new xml input file : H2O.s002.cont.xml
endTime:Sat Jan 23 15:11:47 PST 2021


Starting job in lowerRouterStall policy..
startTime:Sat Jan 23 15:11:47 PST 2021

  Input file(s): simple-H2O.xml 

=====================================================
                    QMCPACK 3.7.0

       (c) Copyright 2003-  QMCPACK developers

                    Please cite:
 J. Kim et al. J. Phys. Cond. Mat. 30 195901 (2018)
      https://doi.org/10.1088/1361-648X/aab9c3

  Git branch: HEAD
  Last git commit: bc47a435682751c26c2695a005684d95f700bebb-dirty
  Last git commit date: Fri Mar 29 14:11:40 2019 -0500
  Last git commit subject: Merge pull request #1520 from QMCPACK/rc_370
=====================================================
  Global options 

  Total number of MPI ranks = 2176
  Number of MPI groups      = 1
  MPI group ID              = 0
  Number of ranks in group  = 2176
  MPI ranks per node        = 68
  OMP 1st level threads     = 4
  OMP nested threading disabled or only 1 thread on the 2nd level

  Precision used in this calculation, see definitions in the manual:
  Base precision      = double
  Full precision      = double

  Structure-of-arrays (SoA) optimization enabled

  Input XML = simple-H2O.xml

  Project = H2O
  date    = 2021-01-23 15:12:00 PST
  host    = nid08984

 Random Number
 -------------
  Offset for the random number seeds based on time: 320

  Range of prime numbers to use as seeds over processors and threads = 2137-93481


 Particle Set 
 ------------
  Name: e
  All the species have the same mass 1
  Particle set size: 8

 Particle Set 
 ------------
  Name: ion0
  All the species have the same mass 1
  Particle set size: 3

 Wavefunction setup: 
 ------------------- 
  Name: psi0
  Created SPOSet builder named 'LCAOBSet' of type molecularorbital
  LCAO: SoaAtomicBasisSet<MultiQuintic,0>

  Distance table for similar particles (A-A):
    source/target: e
    Using structure-of-arrays (SoA) data layout
    Distance computations use open boundary conditions in 3D.


  Distance table for dissimilar particles (A-B):
    source: ion0  target: e
    Using structure-of-arrays (SoA) data layout
    Distance computations use open boundary conditions in 3D.

  AO BasisSet for O
   Angular momentum expanded in cartesian functions x^lx y^ly z^lz according to Gamess
Using log grid with default values: ri = 1e-06 rf = 100 npts = 1001
   R(n,l,m,s) 0 0 0 0
   R(n,l,m,s) 1 0 0 0
   R(n,l,m,s) 2 0 0 0
   R(n,l,m,s) 3 1 0 0
   R(n,l,m,s) 4 1 0 0
   R(n,l,m,s) 5 1 0 0
   R(n,l,m,s) 6 2 0 0
   R(n,l,m,s) 7 2 0 0
   R(n,l,m,s) 8 3 0 0
Expanding Ylm (angular function) according to Gamess using cartesian gaussians
Adding 1 cartesian gaussian orbitals for l= 0
Adding 1 cartesian gaussian orbitals for l= 0
Adding 1 cartesian gaussian orbitals for l= 0
Adding 3 cartesian gaussian orbitals for l= 1
Adding 3 cartesian gaussian orbitals for l= 1
Adding 3 cartesian gaussian orbitals for l= 1
Adding 6 cartesian gaussian orbitals for l= 2
Adding 6 cartesian gaussian orbitals for l= 2
Adding 10 cartesian gaussian orbitals for l= 3
  Setting cutoff radius 10.1859

   Maximum Angular Momentum  = 3
   Number of Radial functors = 9
   Basis size                = 34

  AO BasisSet for H
   Angular momentum expanded in cartesian functions x^lx y^ly z^lz according to Gamess
Using log grid with default values: ri = 1e-06 rf = 100 npts = 1001
   R(n,l,m,s) 0 0 0 0
   R(n,l,m,s) 1 0 0 0
   R(n,l,m,s) 2 0 0 0
   R(n,l,m,s) 3 1 0 0
   R(n,l,m,s) 4 1 0 0
   R(n,l,m,s) 5 2 0 0
Expanding Ylm (angular function) according to Gamess using cartesian gaussians
Adding 1 cartesian gaussian orbitals for l= 0
Adding 1 cartesian gaussian orbitals for l= 0
Adding 1 cartesian gaussian orbitals for l= 0
Adding 3 cartesian gaussian orbitals for l= 1
Adding 3 cartesian gaussian orbitals for l= 1
Adding 6 cartesian gaussian orbitals for l= 2
  Setting cutoff radius 19.4089

   Maximum Angular Momentum  = 2
   Number of Radial functors = 6
   Basis size                = 15

Reuse SPOSetBuilder "LCAOBSet" type MolecularOrbital
  Building SPOSet '' with '' basis set.
Reuse SPOSetBuilder "LCAOBSet" type MolecularOrbital
  Building SPOSet '' with '' basis set.
  Creating a determinant updet group=0 sposet=updet
  Reusing a SPO set updet
Using DiracDeterminant with DelayedUpdate engine
Using rank-1 Sherman-Morrison Fahy update

  Creating a determinant downdet group=1 sposet=downdet
  Reusing a SPO set downdet
Using DiracDeterminant with DelayedUpdate engine
Using rank-1 Sherman-Morrison Fahy update

  FermionWF = SlaterDet
  RadialJastrowBuilder adds a functor with cusp = -0.25
 size = 10 parameters 
 cusp = -0.25
 rcut = 10
Parameter     Name      Value
uu_0 0.029047 1 1  ON 0
uu_1 -0.100418 1 1  ON 1
uu_2 -0.17527 1 1  ON 2
uu_3 -0.223258 1 1  ON 3
uu_4 -0.272803 1 1  ON 4
uu_5 -0.325329 1 1  ON 5
uu_6 -0.362453 1 1  ON 6
uu_7 -0.395822 1 1  ON 7
uu_8 -0.426858 1 1  ON 8
uu_9 -0.439453 1 1  ON 9
  RadialJastrowBuilder adds a functor with cusp = -0.5
 size = 10 parameters 
 cusp = -0.5
 rcut = 10
Parameter     Name      Value
ud_0 0.930669 1 1  ON 0
ud_1 0.628359 1 1  ON 1
ud_2 0.463024 1 1  ON 2
ud_3 0.375585 1 1  ON 3
ud_4 0.333251 1 1  ON 4
ud_5 0.297451 1 1  ON 5
ud_6 0.255069 1 1  ON 6
ud_7 0.197016 1 1  ON 7
ud_8 0.135704 1 1  ON 8
ud_9 0.11181 1 1  ON 9
 size = 10 parameters 
 cusp = 0
 rcut = 10
Parameter     Name      Value
eO_0 -4.0158 1 1  ON 0
eO_1 -3.62877 1 1  ON 1
eO_2 -2.75734 1 1  ON 2
eO_3 -1.83881 1 1  ON 3
eO_4 -1.15124 1 1  ON 4
eO_5 -0.462677 1 1  ON 5
eO_6 -0.212032 1 1  ON 6
eO_7 -0.139318 1 1  ON 7
eO_8 0.513465 1 1  ON 8
eO_9 6.44894 1 1  ON 9
 size = 10 parameters 
 cusp = 0
 rcut = 10
Parameter     Name      Value
eH_0 -0.335752 1 1  ON 0
eH_1 -0.295754 1 1  ON 1
eH_2 -0.27382 1 1  ON 2
eH_3 -0.226322 1 1  ON 3
eH_4 -0.176979 1 1  ON 4
eH_5 -0.176265 1 1  ON 5
eH_6 -0.189957 1 1  ON 6
eH_7 -0.181647 1 1  ON 7
eH_8 -0.038387 1 1  ON 8
eH_9 0.345305 1 1  ON 9
Parameter     Name      Value
uuO_0 8.22771e-06 1 1  ON 0
uuO_1 2.48082e-06 1 1  ON 1
uuO_2 -5.35407e-06 1 1  ON 2
uuO_3 -1.11264e-05 1 1  ON 3
uuO_4 -2.20801e-06 1 1  ON 4
uuO_5 5.21312e-06 1 1  ON 5
uuO_6 -1.53787e-05 1 1  ON 6
uuO_7 8.89903e-06 1 1  ON 7
uuO_8 6.25726e-06 1 1  ON 8
uuO_9 3.21458e-06 1 1  ON 9
uuO_10 -7.71674e-06 1 1  ON 10
uuO_11 -5.27568e-06 1 1  ON 11
uuO_12 -1.77846e-06 1 1  ON 12
uuO_13 7.92623e-06 1 1  ON 13
uuO_14 1.76741e-06 1 1  ON 14
uuO_15 5.45136e-08 1 1  ON 15
uuO_16 2.80142e-06 1 1  ON 16
uuO_17 4.57728e-06 1 1  ON 17
uuO_18 7.63461e-06 1 1  ON 18
uuO_19 -9.51067e-07 1 1  ON 19
uuO_20 -2.34413e-06 1 1  ON 20
uuO_21 -1.87878e-06 1 1  ON 21
uuO_22 3.93736e-07 1 1  ON 22
uuO_23 5.06535e-07 1 1  ON 23
uuO_24 5.08672e-07 1 1  ON 24
uuO_25 -1.35877e-07 1 1  ON 25
Parameter     Name      Value
udO_0 -6.93953e-06 1 1  ON 0
udO_1 2.63417e-05 1 1  ON 1
udO_2 4.04608e-05 1 1  ON 2
udO_3 -8.00268e-06 1 1  ON 3
udO_4 -5.3968e-06 1 1  ON 4
udO_5 6.69737e-06 1 1  ON 5
udO_6 5.43395e-05 1 1  ON 6
udO_7 -6.33685e-06 1 1  ON 7
udO_8 3.68047e-05 1 1  ON 8
udO_9 -2.99606e-05 1 1  ON 9
udO_10 1.99366e-06 1 1  ON 10
udO_11 -3.22271e-05 1 1  ON 11
udO_12 -8.09167e-06 1 1  ON 12
udO_13 4.15739e-06 1 1  ON 13
udO_14 4.84394e-06 1 1  ON 14
udO_15 3.56365e-07 1 1  ON 15
udO_16 3.78633e-05 1 1  ON 16
udO_17 -1.41834e-05 1 1  ON 17
udO_18 2.28269e-05 1 1  ON 18
udO_19 1.29239e-06 1 1  ON 19
udO_20 -4.93581e-06 1 1  ON 20
udO_21 -3.05254e-06 1 1  ON 21
udO_22 9.87029e-08 1 1  ON 22
udO_23 1.84429e-06 1 1  ON 23
udO_24 2.97056e-07 1 1  ON 24
udO_25 -4.3643e-08 1 1  ON 25
Parameter     Name      Value
uuH_0 1.21983e-05 1 1  ON 0
uuH_1 1.70285e-05 1 1  ON 1
uuH_2 -1.60944e-05 1 1  ON 2
uuH_3 -1.21461e-05 1 1  ON 3
uuH_4 5.89794e-08 1 1  ON 4
uuH_5 -7.84971e-07 1 1  ON 5
uuH_6 7.75018e-06 1 1  ON 6
uuH_7 -2.74556e-05 1 1  ON 7
uuH_8 -1.37775e-05 1 1  ON 8
uuH_9 -1.14428e-05 1 1  ON 9
uuH_10 -1.06388e-05 1 1  ON 10
uuH_11 2.73117e-05 1 1  ON 11
uuH_12 8.30376e-07 1 1  ON 12
uuH_13 1.58423e-05 1 1  ON 13
uuH_14 -2.02534e-06 1 1  ON 14
uuH_15 1.23654e-07 1 1  ON 15
uuH_16 1.05822e-05 1 1  ON 16
uuH_17 1.77824e-05 1 1  ON 17
uuH_18 -2.15364e-05 1 1  ON 18
uuH_19 2.19459e-06 1 1  ON 19
uuH_20 -8.9199e-06 1 1  ON 20
uuH_21 3.22949e-06 1 1  ON 21
uuH_22 -5.14014e-07 1 1  ON 22
uuH_23 2.92814e-06 1 1  ON 23
uuH_24 -7.97265e-07 1 1  ON 24
uuH_25 1.41116e-07 1 1  ON 25
Parameter     Name      Value
udH_0 -2.54349e-06 1 1  ON 0
udH_1 -8.33732e-06 1 1  ON 1
udH_2 3.04386e-06 1 1  ON 2
udH_3 -3.54249e-06 1 1  ON 3
udH_4 -2.70133e-06 1 1  ON 4
udH_5 1.45878e-06 1 1  ON 5
udH_6 7.95043e-06 1 1  ON 6
udH_7 -1.87033e-05 1 1  ON 7
udH_8 -2.24168e-06 1 1  ON 8
udH_9 -4.86877e-06 1 1  ON 9
udH_10 -6.17441e-06 1 1  ON 10
udH_11 1.51731e-05 1 1  ON 11
udH_12 -9.52902e-07 1 1  ON 12
udH_13 9.6868e-06 1 1  ON 13
udH_14 -1.64005e-06 1 1  ON 14
udH_15 2.57667e-07 1 1  ON 15
udH_16 1.39257e-05 1 1  ON 16
udH_17 8.67619e-06 1 1  ON 17
udH_18 -1.64788e-05 1 1  ON 18
udH_19 2.49493e-06 1 1  ON 19
udH_20 -7.72623e-06 1 1  ON 20
udH_21 3.43106e-06 1 1  ON 21
udH_22 -6.6016e-07 1 1  ON 22
udH_23 2.3902e-06 1 1  ON 23
udH_24 -9.16932e-07 1 1  ON 24
udH_25 1.90216e-07 1 1  ON 25
  QMCHamiltonian::addOperator Kinetic to H, physical Hamiltonian 
  QMCHamiltonian::addOperator ElecElec to H, physical Hamiltonian 
QMCHamiltonian::addOperatorType added type coulomb named ElecElec

  ECPotential builder for pseudopotential 

  Adding pseudopotential for O
   Linear grid  ri=0 rf=10 npts = 10001
    ECPComponentBuilder::buildSemiLocalAndLocal 
    Assuming Hartree unit
   Number of angular momentum channels 2
   Maximum angular momentum channel 1
   Creating a Linear Grid Rmax=1.31
  Using global grid with delta = 0.001
   Making L=1 a local potential with a radial cutoff of 9.999
    Non-local pseudopotential parameters
    Maximum angular mementum = 0
    Number of non-local channels = 1
       l(0)=0
    Cutoff radius = 1.31
    Spherical grids and weights: 
                        1                 0                 0       0.08333333333
                       -1   1.224646799e-16                 0       0.08333333333
             0.4472135955       0.894427191                 0       0.08333333333
            -0.4472135955      0.7236067977      0.5257311121       0.08333333333
             0.4472135955      0.2763932023      0.8506508084       0.08333333333
            -0.4472135955     -0.2763932023      0.8506508084       0.08333333333
             0.4472135955     -0.7236067977      0.5257311121       0.08333333333
            -0.4472135955      -0.894427191   1.095357397e-16       0.08333333333
             0.4472135955     -0.7236067977     -0.5257311121       0.08333333333
            -0.4472135955     -0.2763932023     -0.8506508084       0.08333333333
             0.4472135955      0.2763932023     -0.8506508084       0.08333333333
            -0.4472135955      0.7236067977     -0.5257311121       0.08333333333
    Maximum cutoff radius 1.31

  Adding pseudopotential for H
   Linear grid  ri=0 rf=10 npts = 10001
    ECPComponentBuilder::buildSemiLocalAndLocal 
    Assuming Hartree unit
    Only one vps is found. Set the local component=0
   Number of angular momentum channels 1
   Maximum angular momentum channel 0
   Creating a Linear Grid Rmax=1.17
  Using global grid with delta = 0.001
   Making L=0 a local potential with a radial cutoff of 9.999
  QMCHamiltonian::addOperator LocalECP to H, physical Hamiltonian 

  Using NonLocalECP potential 
    Maximum grid on a sphere for NonLocalECPotential: 12
  QMCHamiltonian::addOperator NonLocalECP to H, physical Hamiltonian 
QMCHamiltonian::addOperatorType added type pseudo named ELEMENT-ECP

  Distance table for similar particles (A-A):
    source/target: ion0
    Using structure-of-arrays (SoA) data layout
    Distance computations use open boundary conditions in 3D.

  QMCHamiltonian::addOperator IonIon to H, physical Hamiltonian 
QMCHamiltonian::addOperatorType added type coulomb named IonIon

  QMCHamiltonian::add2WalkerProperty added
    5 to P::PropertyList 
    0 to P::Collectables 
    starting Index of the observables in P::PropertyList = 9
<init source="ion0" target="e">
</init>
ParticleSetPool::randomize 
  Initialization Execution time = 1.476 secs
=========================================================
 Summary of QMC systems 
=========================================================
ParticleSetPool has: 

  ParticleSet e : 0 4 8 

    8

    u  5.8597012843e-01  4.2392973992e-01 -2.9404064844e-02
    u  6.7612789295e-01 -2.5362004145e-01  4.9698710024e-02
    u  3.7611911389e-01 -6.1147656492e-01  9.2589619033e-02
    u -4.2687436715e-01 -1.9792305260e+00  1.3102851607e+00
    d -5.0535211266e-01  4.5897455853e-01 -2.4063169301e-01
    d -6.1451414739e-01  2.8445709344e-01 -2.5573138150e-01
    d -3.2482072209e-02  6.5884619721e-01  2.9800774863e-01
    d  1.1768158586e-01  1.1510457091e+00  4.5074318450e-01

  ParticleSet ion0 : 0 1 3 

    3

    O  0.0000000000e+00  0.0000000000e+00  0.0000000000e+00
    H  0.0000000000e+00 -1.4308249289e+00  1.1078707576e+00
    H  0.0000000000e+00  1.4308249289e+00  1.1078707576e+00

  Hamiltonian h0
  Kinetic         Kinetic energy
  ElecElec        CoulombAA source/target e

  LocalECP        LocalECPotential: ion0
  NonLocalECP     NonLocalECPotential: ion0
  IonIon          CoulombAA source/target ion0


=========================================================
  Start VMC
  File Root H2O.s001 append = no 
=========================================================
  Adding 4 walkers to 0 existing sets
  Total number of walkers: 8.7040000000e+03
  Total weight: 8.7040000000e+03
  Resetting Properties of the walkers 1 x 14

<vmc function="put">
  qmc_counter=0  my_counter=0
  time step      = 3.0000000000e-01
  blocks         = 1
  steps          = 64
  substeps       = 5
  current        = 0
  target samples = 5.5705600000e+05
  walkers/mpi    = 4

  stepsbetweensamples = 1
<parameter name="blocks" condition="int">1</parameter>
<parameter name="blocks_between_recompute" condition="int">0</parameter>
<parameter name="check_properties" condition="int">100</parameter>
<parameter name="checkproperties" condition="int">100</parameter>
<parameter name="current" condition="int">0</parameter>
<parameter name="dmcwalkersperthread" condition="real">6.4000000000e+01</parameter>
<parameter name="maxcpusecs" condition="real">3.6000000000e+05</parameter>
<parameter name="record_configs" condition="int">0</parameter>
<parameter name="record_walkers" condition="int">1</parameter>
<parameter name="recordconfigs" condition="int">0</parameter>
<parameter name="recordwalkers" condition="int">1</parameter>
<parameter name="rewind" condition="int">0</parameter>
<parameter name="samples" condition="real">5.5705600000e+05</parameter>
<parameter name="samplesperthread" condition="real">6.4000000000e+01</parameter>
<parameter name="steps" condition="int">64</parameter>
<parameter name="stepsbetweensamples" condition="int">1</parameter>
<parameter name="store_configs" condition="int">0</parameter>
<parameter name="storeconfigs" condition="int">0</parameter>
<parameter name="sub_steps" condition="int">5</parameter>
<parameter name="substeps" condition="int">5</parameter>
<parameter name="tau" condition="au">3.0000000000e-01</parameter>
<parameter name="time_step" condition="au">3.0000000000e-01</parameter>
<parameter name="timestep" condition="au">3.0000000000e-01</parameter>
<parameter name="use_drift" condition="string">no</parameter>
<parameter name="usedrift" condition="string">no</parameter>
<parameter name="walkers" condition="int">4</parameter>
<parameter name="warmup_steps" condition="int">100</parameter>
<parameter name="warmupsteps" condition="int">100</parameter>
  DumpConfig==false Nothing (configurations, state) will be saved.
  Walker Samples are dumped every 1 steps.
</vmc>
  CloneManager::makeClones makes 4 clones for W/Psi/H.
  Cloning methods for both Psi and H are used
===== Memory Usage before cloning =====
Available memory on node 0, free + buffers : 90819 MB
Memory footprint by rank 0 on node 0       : 57 MB
==================================================
===== Memory Usage after cloning =====
Available memory on node 0, free + buffers : 90730 MB
Memory footprint by rank 0 on node 0       : 59 MB
==================================================
  Initial partition of walkers 0 1 2 3 4 

  Using Particle by Particle moves
  Walker moves without drift
  Total Sample Size   =557056
  Walker distribution on root = 0 1 2 3 4 
  Using Locality Approximation
===== Memory Usage after the buffer registration =====
Available memory on node 0, free + buffers : 89320 MB
Memory footprint by rank 0 on node 0       : 79 MB
==================================================
  Anonymous Buffer size per walker : 2912 Bytes.
MEMORY increase 0 MB VMC::resetRun
====================================================
  SimpleFixedNodeBranch::finalize after a VMC block
    QMC counter        = 0
    time step          = 0.3
    reference energy   = -17.2422
    reference variance = 0.265542
====================================================
  QMC Execution time = 2.0117e+00 secs

=========================================================
  Start DMC
  File Root H2O.s002 append = no 
=========================================================
Using existing walkers 
  Resetting Properties of the walkers 1 x 14
  EstimatorManagerBase::add replace LocalEnergy estimator.
  Cannot make clones again. Use existing 4 clones
  Total number of walkers: 5.5706e+05
  Total weight: 5.5706e+05
  Creating WalkerController: target  number of walkers = 557056
  Using WalkerControlMPI for dynamic population control.
  START ALL OVER 
  WalkerControlBase parameters 
    maxCopy = 2
    Max Walkers per MPI rank 513
    Min Walkers per MPI rank 52
    Using non-blocking send/recv
  QMC counter      = 1
  time step        = 5.0000e-03
  effective time step = 5.0000e-03
  trial energy     = -1.7242e+01
  reference energy = -1.7242e+01
  Feedback = 1.0000e+00
  reference variance = 2.6554e-01
  target walkers = 557056
  branching cutoff scheme classic
  branch cutoff = 5.0000e+01 7.5000e+01
  Max and minimum walkers per node= 513 52
  QMC Status (BranchMode) = 0000001101
  Initial partition of walkers on a node: 0 64 128 192 256 
  Updates by particle-by-particle moves
  DMC moves are rejected when a node crossing is detected
  Using Non-local T-moves v0, M. Casula, PRB 74, 161102(R) (2006)
===== Memory Usage after the buffer registration =====
Available memory on node 0, free + buffers : 89251 MB
Memory footprint by rank 0 on node 0       : 82 MB
==================================================
SimpleFixedNodeBranch::checkParameters 
  Average Energy of a population  = -17.2465
  Energy Variance = 0.239936

  Fluctuating population
  Persistent walkers are killed after 1 MC sweeps
  BranchInterval = 1
  Steps per block = 3
  Number of blocks = 100

  DMC Engine Initialization = 1.6520e-01 secs

 Warmup is completed after 100

  TauEff     = 4.9776e-03
 TauEff/Tau = 9.9552e-01
  Etrial     = -1.7268e+01
 Running average of energy = -1.7257e+01
                  Variance = 2.4229e-01
branch cutoff = 1.0000e+01 1.5000e+01
====================================================
  SimpleFixedNodeBranch::finalize after a DMC block
    QMC counter                   = 1
    time step                     = 0.005
    effective time step           = 0.00497759
    trial energy                  = -17.2608
    reference energy              = -17.2612
    reference variance            = 0.242285
    target walkers                = 557056
    branch cutoff                 = 10 15
    Max and minimum walkers per node= 513 52
    Feedback                      = 1
    QMC Status (BranchMode)       = 0000001111
====================================================
  QMC Execution time = 7.3348e+01 secs
  Total Execution time = 7.5385e+01 secs

=========================================================
  A new xml input file : H2O.s002.cont.xml
endTime:Sat Jan 23 15:17:23 PST 2021


Starting job in fewerSwitch policy..
startTime:Sat Jan 23 15:17:23 PST 2021

  Input file(s): simple-H2O.xml 

=====================================================
                    QMCPACK 3.7.0

       (c) Copyright 2003-  QMCPACK developers

                    Please cite:
 J. Kim et al. J. Phys. Cond. Mat. 30 195901 (2018)
      https://doi.org/10.1088/1361-648X/aab9c3

  Git branch: HEAD
  Last git commit: bc47a435682751c26c2695a005684d95f700bebb-dirty
  Last git commit date: Fri Mar 29 14:11:40 2019 -0500
  Last git commit subject: Merge pull request #1520 from QMCPACK/rc_370
=====================================================
  Global options 

  Total number of MPI ranks = 2176
  Number of MPI groups      = 1
  MPI group ID              = 0
  Number of ranks in group  = 2176
  MPI ranks per node        = 68
  OMP 1st level threads     = 4
  OMP nested threading disabled or only 1 thread on the 2nd level

  Precision used in this calculation, see definitions in the manual:
  Base precision      = double
  Full precision      = double

  Structure-of-arrays (SoA) optimization enabled

  Input XML = simple-H2O.xml

  Project = H2O
  date    = 2021-01-23 15:17:35 PST
  host    = nid02752

 Random Number
 -------------
  Offset for the random number seeds based on time: 655

  Range of prime numbers to use as seeds over processors and threads = 4919-97327


 Particle Set 
 ------------
  Name: e
  All the species have the same mass 1
  Particle set size: 8

 Particle Set 
 ------------
  Name: ion0
  All the species have the same mass 1
  Particle set size: 3

 Wavefunction setup: 
 ------------------- 
  Name: psi0
  Created SPOSet builder named 'LCAOBSet' of type molecularorbital
  LCAO: SoaAtomicBasisSet<MultiQuintic,0>

  Distance table for similar particles (A-A):
    source/target: e
    Using structure-of-arrays (SoA) data layout
    Distance computations use open boundary conditions in 3D.


  Distance table for dissimilar particles (A-B):
    source: ion0  target: e
    Using structure-of-arrays (SoA) data layout
    Distance computations use open boundary conditions in 3D.

  AO BasisSet for O
   Angular momentum expanded in cartesian functions x^lx y^ly z^lz according to Gamess
Using log grid with default values: ri = 1e-06 rf = 100 npts = 1001
   R(n,l,m,s) 0 0 0 0
   R(n,l,m,s) 1 0 0 0
   R(n,l,m,s) 2 0 0 0
   R(n,l,m,s) 3 1 0 0
   R(n,l,m,s) 4 1 0 0
   R(n,l,m,s) 5 1 0 0
   R(n,l,m,s) 6 2 0 0
   R(n,l,m,s) 7 2 0 0
   R(n,l,m,s) 8 3 0 0
Expanding Ylm (angular function) according to Gamess using cartesian gaussians
Adding 1 cartesian gaussian orbitals for l= 0
Adding 1 cartesian gaussian orbitals for l= 0
Adding 1 cartesian gaussian orbitals for l= 0
Adding 3 cartesian gaussian orbitals for l= 1
Adding 3 cartesian gaussian orbitals for l= 1
Adding 3 cartesian gaussian orbitals for l= 1
Adding 6 cartesian gaussian orbitals for l= 2
Adding 6 cartesian gaussian orbitals for l= 2
Adding 10 cartesian gaussian orbitals for l= 3
  Setting cutoff radius 10.1859

   Maximum Angular Momentum  = 3
   Number of Radial functors = 9
   Basis size                = 34

  AO BasisSet for H
   Angular momentum expanded in cartesian functions x^lx y^ly z^lz according to Gamess
Using log grid with default values: ri = 1e-06 rf = 100 npts = 1001
   R(n,l,m,s) 0 0 0 0
   R(n,l,m,s) 1 0 0 0
   R(n,l,m,s) 2 0 0 0
   R(n,l,m,s) 3 1 0 0
   R(n,l,m,s) 4 1 0 0
   R(n,l,m,s) 5 2 0 0
Expanding Ylm (angular function) according to Gamess using cartesian gaussians
Adding 1 cartesian gaussian orbitals for l= 0
Adding 1 cartesian gaussian orbitals for l= 0
Adding 1 cartesian gaussian orbitals for l= 0
Adding 3 cartesian gaussian orbitals for l= 1
Adding 3 cartesian gaussian orbitals for l= 1
Adding 6 cartesian gaussian orbitals for l= 2
  Setting cutoff radius 19.4089

   Maximum Angular Momentum  = 2
   Number of Radial functors = 6
   Basis size                = 15

Reuse SPOSetBuilder "LCAOBSet" type MolecularOrbital
  Building SPOSet '' with '' basis set.
Reuse SPOSetBuilder "LCAOBSet" type MolecularOrbital
  Building SPOSet '' with '' basis set.
  Creating a determinant updet group=0 sposet=updet
  Reusing a SPO set updet
Using DiracDeterminant with DelayedUpdate engine
Using rank-1 Sherman-Morrison Fahy update

  Creating a determinant downdet group=1 sposet=downdet
  Reusing a SPO set downdet
Using DiracDeterminant with DelayedUpdate engine
Using rank-1 Sherman-Morrison Fahy update

  FermionWF = SlaterDet
  RadialJastrowBuilder adds a functor with cusp = -0.25
 size = 10 parameters 
 cusp = -0.25
 rcut = 10
Parameter     Name      Value
uu_0 0.029047 1 1  ON 0
uu_1 -0.100418 1 1  ON 1
uu_2 -0.17527 1 1  ON 2
uu_3 -0.223258 1 1  ON 3
uu_4 -0.272803 1 1  ON 4
uu_5 -0.325329 1 1  ON 5
uu_6 -0.362453 1 1  ON 6
uu_7 -0.395822 1 1  ON 7
uu_8 -0.426858 1 1  ON 8
uu_9 -0.439453 1 1  ON 9
  RadialJastrowBuilder adds a functor with cusp = -0.5
 size = 10 parameters 
 cusp = -0.5
 rcut = 10
Parameter     Name      Value
ud_0 0.930669 1 1  ON 0
ud_1 0.628359 1 1  ON 1
ud_2 0.463024 1 1  ON 2
ud_3 0.375585 1 1  ON 3
ud_4 0.333251 1 1  ON 4
ud_5 0.297451 1 1  ON 5
ud_6 0.255069 1 1  ON 6
ud_7 0.197016 1 1  ON 7
ud_8 0.135704 1 1  ON 8
ud_9 0.11181 1 1  ON 9
 size = 10 parameters 
 cusp = 0
 rcut = 10
Parameter     Name      Value
eO_0 -4.0158 1 1  ON 0
eO_1 -3.62877 1 1  ON 1
eO_2 -2.75734 1 1  ON 2
eO_3 -1.83881 1 1  ON 3
eO_4 -1.15124 1 1  ON 4
eO_5 -0.462677 1 1  ON 5
eO_6 -0.212032 1 1  ON 6
eO_7 -0.139318 1 1  ON 7
eO_8 0.513465 1 1  ON 8
eO_9 6.44894 1 1  ON 9
 size = 10 parameters 
 cusp = 0
 rcut = 10
Parameter     Name      Value
eH_0 -0.335752 1 1  ON 0
eH_1 -0.295754 1 1  ON 1
eH_2 -0.27382 1 1  ON 2
eH_3 -0.226322 1 1  ON 3
eH_4 -0.176979 1 1  ON 4
eH_5 -0.176265 1 1  ON 5
eH_6 -0.189957 1 1  ON 6
eH_7 -0.181647 1 1  ON 7
eH_8 -0.038387 1 1  ON 8
eH_9 0.345305 1 1  ON 9
Parameter     Name      Value
uuO_0 8.22771e-06 1 1  ON 0
uuO_1 2.48082e-06 1 1  ON 1
uuO_2 -5.35407e-06 1 1  ON 2
uuO_3 -1.11264e-05 1 1  ON 3
uuO_4 -2.20801e-06 1 1  ON 4
uuO_5 5.21312e-06 1 1  ON 5
uuO_6 -1.53787e-05 1 1  ON 6
uuO_7 8.89903e-06 1 1  ON 7
uuO_8 6.25726e-06 1 1  ON 8
uuO_9 3.21458e-06 1 1  ON 9
uuO_10 -7.71674e-06 1 1  ON 10
uuO_11 -5.27568e-06 1 1  ON 11
uuO_12 -1.77846e-06 1 1  ON 12
uuO_13 7.92623e-06 1 1  ON 13
uuO_14 1.76741e-06 1 1  ON 14
uuO_15 5.45136e-08 1 1  ON 15
uuO_16 2.80142e-06 1 1  ON 16
uuO_17 4.57728e-06 1 1  ON 17
uuO_18 7.63461e-06 1 1  ON 18
uuO_19 -9.51067e-07 1 1  ON 19
uuO_20 -2.34413e-06 1 1  ON 20
uuO_21 -1.87878e-06 1 1  ON 21
uuO_22 3.93736e-07 1 1  ON 22
uuO_23 5.06535e-07 1 1  ON 23
uuO_24 5.08672e-07 1 1  ON 24
uuO_25 -1.35877e-07 1 1  ON 25
Parameter     Name      Value
udO_0 -6.93953e-06 1 1  ON 0
udO_1 2.63417e-05 1 1  ON 1
udO_2 4.04608e-05 1 1  ON 2
udO_3 -8.00268e-06 1 1  ON 3
udO_4 -5.3968e-06 1 1  ON 4
udO_5 6.69737e-06 1 1  ON 5
udO_6 5.43395e-05 1 1  ON 6
udO_7 -6.33685e-06 1 1  ON 7
udO_8 3.68047e-05 1 1  ON 8
udO_9 -2.99606e-05 1 1  ON 9
udO_10 1.99366e-06 1 1  ON 10
udO_11 -3.22271e-05 1 1  ON 11
udO_12 -8.09167e-06 1 1  ON 12
udO_13 4.15739e-06 1 1  ON 13
udO_14 4.84394e-06 1 1  ON 14
udO_15 3.56365e-07 1 1  ON 15
udO_16 3.78633e-05 1 1  ON 16
udO_17 -1.41834e-05 1 1  ON 17
udO_18 2.28269e-05 1 1  ON 18
udO_19 1.29239e-06 1 1  ON 19
udO_20 -4.93581e-06 1 1  ON 20
udO_21 -3.05254e-06 1 1  ON 21
udO_22 9.87029e-08 1 1  ON 22
udO_23 1.84429e-06 1 1  ON 23
udO_24 2.97056e-07 1 1  ON 24
udO_25 -4.3643e-08 1 1  ON 25
Parameter     Name      Value
uuH_0 1.21983e-05 1 1  ON 0
uuH_1 1.70285e-05 1 1  ON 1
uuH_2 -1.60944e-05 1 1  ON 2
uuH_3 -1.21461e-05 1 1  ON 3
uuH_4 5.89794e-08 1 1  ON 4
uuH_5 -7.84971e-07 1 1  ON 5
uuH_6 7.75018e-06 1 1  ON 6
uuH_7 -2.74556e-05 1 1  ON 7
uuH_8 -1.37775e-05 1 1  ON 8
uuH_9 -1.14428e-05 1 1  ON 9
uuH_10 -1.06388e-05 1 1  ON 10
uuH_11 2.73117e-05 1 1  ON 11
uuH_12 8.30376e-07 1 1  ON 12
uuH_13 1.58423e-05 1 1  ON 13
uuH_14 -2.02534e-06 1 1  ON 14
uuH_15 1.23654e-07 1 1  ON 15
uuH_16 1.05822e-05 1 1  ON 16
uuH_17 1.77824e-05 1 1  ON 17
uuH_18 -2.15364e-05 1 1  ON 18
uuH_19 2.19459e-06 1 1  ON 19
uuH_20 -8.9199e-06 1 1  ON 20
uuH_21 3.22949e-06 1 1  ON 21
uuH_22 -5.14014e-07 1 1  ON 22
uuH_23 2.92814e-06 1 1  ON 23
uuH_24 -7.97265e-07 1 1  ON 24
uuH_25 1.41116e-07 1 1  ON 25
Parameter     Name      Value
udH_0 -2.54349e-06 1 1  ON 0
udH_1 -8.33732e-06 1 1  ON 1
udH_2 3.04386e-06 1 1  ON 2
udH_3 -3.54249e-06 1 1  ON 3
udH_4 -2.70133e-06 1 1  ON 4
udH_5 1.45878e-06 1 1  ON 5
udH_6 7.95043e-06 1 1  ON 6
udH_7 -1.87033e-05 1 1  ON 7
udH_8 -2.24168e-06 1 1  ON 8
udH_9 -4.86877e-06 1 1  ON 9
udH_10 -6.17441e-06 1 1  ON 10
udH_11 1.51731e-05 1 1  ON 11
udH_12 -9.52902e-07 1 1  ON 12
udH_13 9.6868e-06 1 1  ON 13
udH_14 -1.64005e-06 1 1  ON 14
udH_15 2.57667e-07 1 1  ON 15
udH_16 1.39257e-05 1 1  ON 16
udH_17 8.67619e-06 1 1  ON 17
udH_18 -1.64788e-05 1 1  ON 18
udH_19 2.49493e-06 1 1  ON 19
udH_20 -7.72623e-06 1 1  ON 20
udH_21 3.43106e-06 1 1  ON 21
udH_22 -6.6016e-07 1 1  ON 22
udH_23 2.3902e-06 1 1  ON 23
udH_24 -9.16932e-07 1 1  ON 24
udH_25 1.90216e-07 1 1  ON 25
  QMCHamiltonian::addOperator Kinetic to H, physical Hamiltonian 
  QMCHamiltonian::addOperator ElecElec to H, physical Hamiltonian 
QMCHamiltonian::addOperatorType added type coulomb named ElecElec

  ECPotential builder for pseudopotential 

  Adding pseudopotential for O
   Linear grid  ri=0 rf=10 npts = 10001
    ECPComponentBuilder::buildSemiLocalAndLocal 
    Assuming Hartree unit
   Number of angular momentum channels 2
   Maximum angular momentum channel 1
   Creating a Linear Grid Rmax=1.31
  Using global grid with delta = 0.001
   Making L=1 a local potential with a radial cutoff of 9.999
    Non-local pseudopotential parameters
    Maximum angular mementum = 0
    Number of non-local channels = 1
       l(0)=0
    Cutoff radius = 1.31
    Spherical grids and weights: 
                        1                 0                 0       0.08333333333
                       -1   1.224646799e-16                 0       0.08333333333
             0.4472135955       0.894427191                 0       0.08333333333
            -0.4472135955      0.7236067977      0.5257311121       0.08333333333
             0.4472135955      0.2763932023      0.8506508084       0.08333333333
            -0.4472135955     -0.2763932023      0.8506508084       0.08333333333
             0.4472135955     -0.7236067977      0.5257311121       0.08333333333
            -0.4472135955      -0.894427191   1.095357397e-16       0.08333333333
             0.4472135955     -0.7236067977     -0.5257311121       0.08333333333
            -0.4472135955     -0.2763932023     -0.8506508084       0.08333333333
             0.4472135955      0.2763932023     -0.8506508084       0.08333333333
            -0.4472135955      0.7236067977     -0.5257311121       0.08333333333
    Maximum cutoff radius 1.31

  Adding pseudopotential for H
   Linear grid  ri=0 rf=10 npts = 10001
    ECPComponentBuilder::buildSemiLocalAndLocal 
    Assuming Hartree unit
    Only one vps is found. Set the local component=0
   Number of angular momentum channels 1
   Maximum angular momentum channel 0
   Creating a Linear Grid Rmax=1.17
  Using global grid with delta = 0.001
   Making L=0 a local potential with a radial cutoff of 9.999
  QMCHamiltonian::addOperator LocalECP to H, physical Hamiltonian 

  Using NonLocalECP potential 
    Maximum grid on a sphere for NonLocalECPotential: 12
  QMCHamiltonian::addOperator NonLocalECP to H, physical Hamiltonian 
QMCHamiltonian::addOperatorType added type pseudo named ELEMENT-ECP

  Distance table for similar particles (A-A):
    source/target: ion0
    Using structure-of-arrays (SoA) data layout
    Distance computations use open boundary conditions in 3D.

  QMCHamiltonian::addOperator IonIon to H, physical Hamiltonian 
QMCHamiltonian::addOperatorType added type coulomb named IonIon

  QMCHamiltonian::add2WalkerProperty added
    5 to P::PropertyList 
    0 to P::Collectables 
    starting Index of the observables in P::PropertyList = 9
<init source="ion0" target="e">
</init>
ParticleSetPool::randomize 
  Initialization Execution time = 1.8 secs
=========================================================
 Summary of QMC systems 
=========================================================
ParticleSetPool has: 

  ParticleSet e : 0 4 8 

    8

    u  1.9838716329e-01 -2.9119601682e-01  6.3228903839e-01
    u  1.2636693975e-01  5.5221891492e-01  4.5058593117e-01
    u  3.7638323568e-01 -1.8793712297e-01  5.8903082478e-01
    u -4.5580798428e-01 -1.4224333744e+00  1.6701079656e+00
    d -6.6403375861e-01 -1.7950429957e-01  2.2534282482e-01
    d -9.0148704729e-02 -5.4757182398e-01  4.6473683247e-01
    d -3.8670181238e-02 -7.1395862395e-01 -1.1273737270e-01
    d -6.7838269903e-01  1.5067235414e+00  1.3486576532e+00

  ParticleSet ion0 : 0 1 3 

    3

    O  0.0000000000e+00  0.0000000000e+00  0.0000000000e+00
    H  0.0000000000e+00 -1.4308249289e+00  1.1078707576e+00
    H  0.0000000000e+00  1.4308249289e+00  1.1078707576e+00

  Hamiltonian h0
  Kinetic         Kinetic energy
  ElecElec        CoulombAA source/target e

  LocalECP        LocalECPotential: ion0
  NonLocalECP     NonLocalECPotential: ion0
  IonIon          CoulombAA source/target ion0


=========================================================
  Start VMC
  File Root H2O.s001 append = no 
=========================================================
  Adding 4 walkers to 0 existing sets
  Total number of walkers: 8.7040000000e+03
  Total weight: 8.7040000000e+03
  Resetting Properties of the walkers 1 x 14

<vmc function="put">
  qmc_counter=0  my_counter=0
  time step      = 3.0000000000e-01
  blocks         = 1
  steps          = 64
  substeps       = 5
  current        = 0
  target samples = 5.5705600000e+05
  walkers/mpi    = 4

  stepsbetweensamples = 1
<parameter name="blocks" condition="int">1</parameter>
<parameter name="blocks_between_recompute" condition="int">0</parameter>
<parameter name="check_properties" condition="int">100</parameter>
<parameter name="checkproperties" condition="int">100</parameter>
<parameter name="current" condition="int">0</parameter>
<parameter name="dmcwalkersperthread" condition="real">6.4000000000e+01</parameter>
<parameter name="maxcpusecs" condition="real">3.6000000000e+05</parameter>
<parameter name="record_configs" condition="int">0</parameter>
<parameter name="record_walkers" condition="int">1</parameter>
<parameter name="recordconfigs" condition="int">0</parameter>
<parameter name="recordwalkers" condition="int">1</parameter>
<parameter name="rewind" condition="int">0</parameter>
<parameter name="samples" condition="real">5.5705600000e+05</parameter>
<parameter name="samplesperthread" condition="real">6.4000000000e+01</parameter>
<parameter name="steps" condition="int">64</parameter>
<parameter name="stepsbetweensamples" condition="int">1</parameter>
<parameter name="store_configs" condition="int">0</parameter>
<parameter name="storeconfigs" condition="int">0</parameter>
<parameter name="sub_steps" condition="int">5</parameter>
<parameter name="substeps" condition="int">5</parameter>
<parameter name="tau" condition="au">3.0000000000e-01</parameter>
<parameter name="time_step" condition="au">3.0000000000e-01</parameter>
<parameter name="timestep" condition="au">3.0000000000e-01</parameter>
<parameter name="use_drift" condition="string">no</parameter>
<parameter name="usedrift" condition="string">no</parameter>
<parameter name="walkers" condition="int">4</parameter>
<parameter name="warmup_steps" condition="int">100</parameter>
<parameter name="warmupsteps" condition="int">100</parameter>
  DumpConfig==false Nothing (configurations, state) will be saved.
  Walker Samples are dumped every 1 steps.
</vmc>
  CloneManager::makeClones makes 4 clones for W/Psi/H.
  Cloning methods for both Psi and H are used
===== Memory Usage before cloning =====
Available memory on node 0, free + buffers : 90842 MB
Memory footprint by rank 0 on node 0       : 57 MB
==================================================
===== Memory Usage after cloning =====
Available memory on node 0, free + buffers : 90736 MB
Memory footprint by rank 0 on node 0       : 60 MB
==================================================
  Initial partition of walkers 0 1 2 3 4 

  Using Particle by Particle moves
  Walker moves without drift
  Total Sample Size   =557056
  Walker distribution on root = 0 1 2 3 4 
  Using Locality Approximation
===== Memory Usage after the buffer registration =====
Available memory on node 0, free + buffers : 89332 MB
Memory footprint by rank 0 on node 0       : 80 MB
==================================================
  Anonymous Buffer size per walker : 2912 Bytes.
MEMORY increase 0 MB VMC::resetRun
====================================================
  SimpleFixedNodeBranch::finalize after a VMC block
    QMC counter        = 0
    time step          = 0.3
    reference energy   = -17.2449
    reference variance = 0.235901
====================================================
  QMC Execution time = 2.0279e+00 secs

=========================================================
  Start DMC
  File Root H2O.s002 append = no 
=========================================================
Using existing walkers 
  Resetting Properties of the walkers 1 x 14
  EstimatorManagerBase::add replace LocalEnergy estimator.
  Cannot make clones again. Use existing 4 clones
  Total number of walkers: 5.5706e+05
  Total weight: 5.5706e+05
  Creating WalkerController: target  number of walkers = 557056
  Using WalkerControlMPI for dynamic population control.
  START ALL OVER 
  WalkerControlBase parameters 
    maxCopy = 2
    Max Walkers per MPI rank 513
    Min Walkers per MPI rank 52
    Using non-blocking send/recv
  QMC counter      = 1
  time step        = 5.0000e-03
  effective time step = 5.0000e-03
  trial energy     = -1.7245e+01
  reference energy = -1.7245e+01
  Feedback = 1.0000e+00
  reference variance = 2.3590e-01
  target walkers = 557056
  branching cutoff scheme classic
  branch cutoff = 5.0000e+01 7.5000e+01
  Max and minimum walkers per node= 513 52
  QMC Status (BranchMode) = 0000001101
  Initial partition of walkers on a node: 0 64 128 192 256 
  Updates by particle-by-particle moves
  DMC moves are rejected when a node crossing is detected
  Using Non-local T-moves v0, M. Casula, PRB 74, 161102(R) (2006)
===== Memory Usage after the buffer registration =====
Available memory on node 0, free + buffers : 89287 MB
Memory footprint by rank 0 on node 0       : 81 MB
==================================================
SimpleFixedNodeBranch::checkParameters 
  Average Energy of a population  = -17.2471
  Energy Variance = 0.233662

  Fluctuating population
  Persistent walkers are killed after 1 MC sweeps
  BranchInterval = 1
  Steps per block = 3
  Number of blocks = 100

  DMC Engine Initialization = 1.6918e-01 secs

 Warmup is completed after 100

  TauEff     = 4.9775e-03
 TauEff/Tau = 9.9551e-01
  Etrial     = -1.7262e+01
 Running average of energy = -1.7257e+01
                  Variance = 2.4070e-01
branch cutoff = 1.0000e+01 1.5000e+01
====================================================
  SimpleFixedNodeBranch::finalize after a DMC block
    QMC counter                   = 1
    time step                     = 0.005
    effective time step           = 0.00497757
    trial energy                  = -17.2599
    reference energy              = -17.2604
    reference variance            = 0.240702
    target walkers                = 557056
    branch cutoff                 = 10 15
    Max and minimum walkers per node= 513 52
    Feedback                      = 1
    QMC Status (BranchMode)       = 0000001111
====================================================
  QMC Execution time = 7.0690e+01 secs
  Total Execution time = 7.2745e+01 secs

=========================================================
  A new xml input file : H2O.s002.cont.xml
endTime:Sat Jan 23 15:20:42 PST 2021


Starting job in random policy..
startTime:Sat Jan 23 15:20:42 PST 2021

  Input file(s): simple-H2O.xml 

=====================================================
                    QMCPACK 3.7.0

       (c) Copyright 2003-  QMCPACK developers

                    Please cite:
 J. Kim et al. J. Phys. Cond. Mat. 30 195901 (2018)
      https://doi.org/10.1088/1361-648X/aab9c3

  Git branch: HEAD
  Last git commit: bc47a435682751c26c2695a005684d95f700bebb-dirty
  Last git commit date: Fri Mar 29 14:11:40 2019 -0500
  Last git commit subject: Merge pull request #1520 from QMCPACK/rc_370
=====================================================
  Global options 

  Total number of MPI ranks = 2176
  Number of MPI groups      = 1
  MPI group ID              = 0
  Number of ranks in group  = 2176
  MPI ranks per node        = 68
  OMP 1st level threads     = 4
  OMP nested threading disabled or only 1 thread on the 2nd level

  Precision used in this calculation, see definitions in the manual:
  Base precision      = double
  Full precision      = double

  Structure-of-arrays (SoA) optimization enabled

  Input XML = simple-H2O.xml

  Project = H2O
  date    = 2021-01-23 15:20:51 PST
  host    = nid02778

 Random Number
 -------------
  Offset for the random number seeds based on time: 851

  Range of prime numbers to use as seeds over processors and threads = 6599-99607


 Particle Set 
 ------------
  Name: e
  All the species have the same mass 1
  Particle set size: 8

 Particle Set 
 ------------
  Name: ion0
  All the species have the same mass 1
  Particle set size: 3

 Wavefunction setup: 
 ------------------- 
  Name: psi0
  Created SPOSet builder named 'LCAOBSet' of type molecularorbital
  LCAO: SoaAtomicBasisSet<MultiQuintic,0>

  Distance table for similar particles (A-A):
    source/target: e
    Using structure-of-arrays (SoA) data layout
    Distance computations use open boundary conditions in 3D.


  Distance table for dissimilar particles (A-B):
    source: ion0  target: e
    Using structure-of-arrays (SoA) data layout
    Distance computations use open boundary conditions in 3D.

  AO BasisSet for O
   Angular momentum expanded in cartesian functions x^lx y^ly z^lz according to Gamess
Using log grid with default values: ri = 1e-06 rf = 100 npts = 1001
   R(n,l,m,s) 0 0 0 0
   R(n,l,m,s) 1 0 0 0
   R(n,l,m,s) 2 0 0 0
   R(n,l,m,s) 3 1 0 0
   R(n,l,m,s) 4 1 0 0
   R(n,l,m,s) 5 1 0 0
   R(n,l,m,s) 6 2 0 0
   R(n,l,m,s) 7 2 0 0
   R(n,l,m,s) 8 3 0 0
Expanding Ylm (angular function) according to Gamess using cartesian gaussians
Adding 1 cartesian gaussian orbitals for l= 0
Adding 1 cartesian gaussian orbitals for l= 0
Adding 1 cartesian gaussian orbitals for l= 0
Adding 3 cartesian gaussian orbitals for l= 1
Adding 3 cartesian gaussian orbitals for l= 1
Adding 3 cartesian gaussian orbitals for l= 1
Adding 6 cartesian gaussian orbitals for l= 2
Adding 6 cartesian gaussian orbitals for l= 2
Adding 10 cartesian gaussian orbitals for l= 3
  Setting cutoff radius 10.1859

   Maximum Angular Momentum  = 3
   Number of Radial functors = 9
   Basis size                = 34

  AO BasisSet for H
   Angular momentum expanded in cartesian functions x^lx y^ly z^lz according to Gamess
Using log grid with default values: ri = 1e-06 rf = 100 npts = 1001
   R(n,l,m,s) 0 0 0 0
   R(n,l,m,s) 1 0 0 0
   R(n,l,m,s) 2 0 0 0
   R(n,l,m,s) 3 1 0 0
   R(n,l,m,s) 4 1 0 0
   R(n,l,m,s) 5 2 0 0
Expanding Ylm (angular function) according to Gamess using cartesian gaussians
Adding 1 cartesian gaussian orbitals for l= 0
Adding 1 cartesian gaussian orbitals for l= 0
Adding 1 cartesian gaussian orbitals for l= 0
Adding 3 cartesian gaussian orbitals for l= 1
Adding 3 cartesian gaussian orbitals for l= 1
Adding 6 cartesian gaussian orbitals for l= 2
  Setting cutoff radius 19.4089

   Maximum Angular Momentum  = 2
   Number of Radial functors = 6
   Basis size                = 15

Reuse SPOSetBuilder "LCAOBSet" type MolecularOrbital
  Building SPOSet '' with '' basis set.
Reuse SPOSetBuilder "LCAOBSet" type MolecularOrbital
  Building SPOSet '' with '' basis set.
  Creating a determinant updet group=0 sposet=updet
  Reusing a SPO set updet
Using DiracDeterminant with DelayedUpdate engine
Using rank-1 Sherman-Morrison Fahy update

  Creating a determinant downdet group=1 sposet=downdet
  Reusing a SPO set downdet
Using DiracDeterminant with DelayedUpdate engine
Using rank-1 Sherman-Morrison Fahy update

  FermionWF = SlaterDet
  RadialJastrowBuilder adds a functor with cusp = -0.25
 size = 10 parameters 
 cusp = -0.25
 rcut = 10
Parameter     Name      Value
uu_0 0.029047 1 1  ON 0
uu_1 -0.100418 1 1  ON 1
uu_2 -0.17527 1 1  ON 2
uu_3 -0.223258 1 1  ON 3
uu_4 -0.272803 1 1  ON 4
uu_5 -0.325329 1 1  ON 5
uu_6 -0.362453 1 1  ON 6
uu_7 -0.395822 1 1  ON 7
uu_8 -0.426858 1 1  ON 8
uu_9 -0.439453 1 1  ON 9
  RadialJastrowBuilder adds a functor with cusp = -0.5
 size = 10 parameters 
 cusp = -0.5
 rcut = 10
Parameter     Name      Value
ud_0 0.930669 1 1  ON 0
ud_1 0.628359 1 1  ON 1
ud_2 0.463024 1 1  ON 2
ud_3 0.375585 1 1  ON 3
ud_4 0.333251 1 1  ON 4
ud_5 0.297451 1 1  ON 5
ud_6 0.255069 1 1  ON 6
ud_7 0.197016 1 1  ON 7
ud_8 0.135704 1 1  ON 8
ud_9 0.11181 1 1  ON 9
 size = 10 parameters 
 cusp = 0
 rcut = 10
Parameter     Name      Value
eO_0 -4.0158 1 1  ON 0
eO_1 -3.62877 1 1  ON 1
eO_2 -2.75734 1 1  ON 2
eO_3 -1.83881 1 1  ON 3
eO_4 -1.15124 1 1  ON 4
eO_5 -0.462677 1 1  ON 5
eO_6 -0.212032 1 1  ON 6
eO_7 -0.139318 1 1  ON 7
eO_8 0.513465 1 1  ON 8
eO_9 6.44894 1 1  ON 9
 size = 10 parameters 
 cusp = 0
 rcut = 10
Parameter     Name      Value
eH_0 -0.335752 1 1  ON 0
eH_1 -0.295754 1 1  ON 1
eH_2 -0.27382 1 1  ON 2
eH_3 -0.226322 1 1  ON 3
eH_4 -0.176979 1 1  ON 4
eH_5 -0.176265 1 1  ON 5
eH_6 -0.189957 1 1  ON 6
eH_7 -0.181647 1 1  ON 7
eH_8 -0.038387 1 1  ON 8
eH_9 0.345305 1 1  ON 9
Parameter     Name      Value
uuO_0 8.22771e-06 1 1  ON 0
uuO_1 2.48082e-06 1 1  ON 1
uuO_2 -5.35407e-06 1 1  ON 2
uuO_3 -1.11264e-05 1 1  ON 3
uuO_4 -2.20801e-06 1 1  ON 4
uuO_5 5.21312e-06 1 1  ON 5
uuO_6 -1.53787e-05 1 1  ON 6
uuO_7 8.89903e-06 1 1  ON 7
uuO_8 6.25726e-06 1 1  ON 8
uuO_9 3.21458e-06 1 1  ON 9
uuO_10 -7.71674e-06 1 1  ON 10
uuO_11 -5.27568e-06 1 1  ON 11
uuO_12 -1.77846e-06 1 1  ON 12
uuO_13 7.92623e-06 1 1  ON 13
uuO_14 1.76741e-06 1 1  ON 14
uuO_15 5.45136e-08 1 1  ON 15
uuO_16 2.80142e-06 1 1  ON 16
uuO_17 4.57728e-06 1 1  ON 17
uuO_18 7.63461e-06 1 1  ON 18
uuO_19 -9.51067e-07 1 1  ON 19
uuO_20 -2.34413e-06 1 1  ON 20
uuO_21 -1.87878e-06 1 1  ON 21
uuO_22 3.93736e-07 1 1  ON 22
uuO_23 5.06535e-07 1 1  ON 23
uuO_24 5.08672e-07 1 1  ON 24
uuO_25 -1.35877e-07 1 1  ON 25
Parameter     Name      Value
udO_0 -6.93953e-06 1 1  ON 0
udO_1 2.63417e-05 1 1  ON 1
udO_2 4.04608e-05 1 1  ON 2
udO_3 -8.00268e-06 1 1  ON 3
udO_4 -5.3968e-06 1 1  ON 4
udO_5 6.69737e-06 1 1  ON 5
udO_6 5.43395e-05 1 1  ON 6
udO_7 -6.33685e-06 1 1  ON 7
udO_8 3.68047e-05 1 1  ON 8
udO_9 -2.99606e-05 1 1  ON 9
udO_10 1.99366e-06 1 1  ON 10
udO_11 -3.22271e-05 1 1  ON 11
udO_12 -8.09167e-06 1 1  ON 12
udO_13 4.15739e-06 1 1  ON 13
udO_14 4.84394e-06 1 1  ON 14
udO_15 3.56365e-07 1 1  ON 15
udO_16 3.78633e-05 1 1  ON 16
udO_17 -1.41834e-05 1 1  ON 17
udO_18 2.28269e-05 1 1  ON 18
udO_19 1.29239e-06 1 1  ON 19
udO_20 -4.93581e-06 1 1  ON 20
udO_21 -3.05254e-06 1 1  ON 21
udO_22 9.87029e-08 1 1  ON 22
udO_23 1.84429e-06 1 1  ON 23
udO_24 2.97056e-07 1 1  ON 24
udO_25 -4.3643e-08 1 1  ON 25
Parameter     Name      Value
uuH_0 1.21983e-05 1 1  ON 0
uuH_1 1.70285e-05 1 1  ON 1
uuH_2 -1.60944e-05 1 1  ON 2
uuH_3 -1.21461e-05 1 1  ON 3
uuH_4 5.89794e-08 1 1  ON 4
uuH_5 -7.84971e-07 1 1  ON 5
uuH_6 7.75018e-06 1 1  ON 6
uuH_7 -2.74556e-05 1 1  ON 7
uuH_8 -1.37775e-05 1 1  ON 8
uuH_9 -1.14428e-05 1 1  ON 9
uuH_10 -1.06388e-05 1 1  ON 10
uuH_11 2.73117e-05 1 1  ON 11
uuH_12 8.30376e-07 1 1  ON 12
uuH_13 1.58423e-05 1 1  ON 13
uuH_14 -2.02534e-06 1 1  ON 14
uuH_15 1.23654e-07 1 1  ON 15
uuH_16 1.05822e-05 1 1  ON 16
uuH_17 1.77824e-05 1 1  ON 17
uuH_18 -2.15364e-05 1 1  ON 18
uuH_19 2.19459e-06 1 1  ON 19
uuH_20 -8.9199e-06 1 1  ON 20
uuH_21 3.22949e-06 1 1  ON 21
uuH_22 -5.14014e-07 1 1  ON 22
uuH_23 2.92814e-06 1 1  ON 23
uuH_24 -7.97265e-07 1 1  ON 24
uuH_25 1.41116e-07 1 1  ON 25
Parameter     Name      Value
udH_0 -2.54349e-06 1 1  ON 0
udH_1 -8.33732e-06 1 1  ON 1
udH_2 3.04386e-06 1 1  ON 2
udH_3 -3.54249e-06 1 1  ON 3
udH_4 -2.70133e-06 1 1  ON 4
udH_5 1.45878e-06 1 1  ON 5
udH_6 7.95043e-06 1 1  ON 6
udH_7 -1.87033e-05 1 1  ON 7
udH_8 -2.24168e-06 1 1  ON 8
udH_9 -4.86877e-06 1 1  ON 9
udH_10 -6.17441e-06 1 1  ON 10
udH_11 1.51731e-05 1 1  ON 11
udH_12 -9.52902e-07 1 1  ON 12
udH_13 9.6868e-06 1 1  ON 13
udH_14 -1.64005e-06 1 1  ON 14
udH_15 2.57667e-07 1 1  ON 15
udH_16 1.39257e-05 1 1  ON 16
udH_17 8.67619e-06 1 1  ON 17
udH_18 -1.64788e-05 1 1  ON 18
udH_19 2.49493e-06 1 1  ON 19
udH_20 -7.72623e-06 1 1  ON 20
udH_21 3.43106e-06 1 1  ON 21
udH_22 -6.6016e-07 1 1  ON 22
udH_23 2.3902e-06 1 1  ON 23
udH_24 -9.16932e-07 1 1  ON 24
udH_25 1.90216e-07 1 1  ON 25
  QMCHamiltonian::addOperator Kinetic to H, physical Hamiltonian 
  QMCHamiltonian::addOperator ElecElec to H, physical Hamiltonian 
QMCHamiltonian::addOperatorType added type coulomb named ElecElec

  ECPotential builder for pseudopotential 

  Adding pseudopotential for O
   Linear grid  ri=0 rf=10 npts = 10001
    ECPComponentBuilder::buildSemiLocalAndLocal 
    Assuming Hartree unit
   Number of angular momentum channels 2
   Maximum angular momentum channel 1
   Creating a Linear Grid Rmax=1.31
  Using global grid with delta = 0.001
   Making L=1 a local potential with a radial cutoff of 9.999
    Non-local pseudopotential parameters
    Maximum angular mementum = 0
    Number of non-local channels = 1
       l(0)=0
    Cutoff radius = 1.31
    Spherical grids and weights: 
                        1                 0                 0       0.08333333333
                       -1   1.224646799e-16                 0       0.08333333333
             0.4472135955       0.894427191                 0       0.08333333333
            -0.4472135955      0.7236067977      0.5257311121       0.08333333333
             0.4472135955      0.2763932023      0.8506508084       0.08333333333
            -0.4472135955     -0.2763932023      0.8506508084       0.08333333333
             0.4472135955     -0.7236067977      0.5257311121       0.08333333333
            -0.4472135955      -0.894427191   1.095357397e-16       0.08333333333
             0.4472135955     -0.7236067977     -0.5257311121       0.08333333333
            -0.4472135955     -0.2763932023     -0.8506508084       0.08333333333
             0.4472135955      0.2763932023     -0.8506508084       0.08333333333
            -0.4472135955      0.7236067977     -0.5257311121       0.08333333333
    Maximum cutoff radius 1.31

  Adding pseudopotential for H
   Linear grid  ri=0 rf=10 npts = 10001
    ECPComponentBuilder::buildSemiLocalAndLocal 
    Assuming Hartree unit
    Only one vps is found. Set the local component=0
   Number of angular momentum channels 1
   Maximum angular momentum channel 0
   Creating a Linear Grid Rmax=1.17
  Using global grid with delta = 0.001
   Making L=0 a local potential with a radial cutoff of 9.999
  QMCHamiltonian::addOperator LocalECP to H, physical Hamiltonian 

  Using NonLocalECP potential 
    Maximum grid on a sphere for NonLocalECPotential: 12
  QMCHamiltonian::addOperator NonLocalECP to H, physical Hamiltonian 
QMCHamiltonian::addOperatorType added type pseudo named ELEMENT-ECP

  Distance table for similar particles (A-A):
    source/target: ion0
    Using structure-of-arrays (SoA) data layout
    Distance computations use open boundary conditions in 3D.

  QMCHamiltonian::addOperator IonIon to H, physical Hamiltonian 
QMCHamiltonian::addOperatorType added type coulomb named IonIon

  QMCHamiltonian::add2WalkerProperty added
    5 to P::PropertyList 
    0 to P::Collectables 
    starting Index of the observables in P::PropertyList = 9
<init source="ion0" target="e">
</init>
ParticleSetPool::randomize 
  Initialization Execution time = 1.884 secs
=========================================================
 Summary of QMC systems 
=========================================================
ParticleSetPool has: 

  ParticleSet e : 0 4 8 

    8

    u -2.7570015961e-01 -5.5740509875e-01 -3.7044701741e-01
    u -5.2871379232e-01 -4.1862742881e-01 -2.6297303378e-01
    u  2.8999285533e-01  3.1964982804e-01 -5.8109392195e-01
    u  1.4733292056e-01 -1.6739281921e+00  4.4218627621e-01
    d -4.5990018423e-01  3.8557963652e-01 -4.0467539989e-01
    d -4.4835520094e-01 -1.9888996602e-01 -5.3231795953e-01
    d  4.3689902215e-01  5.6542477277e-01 -1.1556853212e-01
    d -2.0952935822e-01  1.5843785664e+00  4.3225197212e-01

  ParticleSet ion0 : 0 1 3 

    3

    O  0.0000000000e+00  0.0000000000e+00  0.0000000000e+00
    H  0.0000000000e+00 -1.4308249289e+00  1.1078707576e+00
    H  0.0000000000e+00  1.4308249289e+00  1.1078707576e+00

  Hamiltonian h0
  Kinetic         Kinetic energy
  ElecElec        CoulombAA source/target e

  LocalECP        LocalECPotential: ion0
  NonLocalECP     NonLocalECPotential: ion0
  IonIon          CoulombAA source/target ion0


=========================================================
  Start VMC
  File Root H2O.s001 append = no 
=========================================================
  Adding 4 walkers to 0 existing sets
  Total number of walkers: 8.7040000000e+03
  Total weight: 8.7040000000e+03
  Resetting Properties of the walkers 1 x 14

<vmc function="put">
  qmc_counter=0  my_counter=0
  time step      = 3.0000000000e-01
  blocks         = 1
  steps          = 64
  substeps       = 5
  current        = 0
  target samples = 5.5705600000e+05
  walkers/mpi    = 4

  stepsbetweensamples = 1
<parameter name="blocks" condition="int">1</parameter>
<parameter name="blocks_between_recompute" condition="int">0</parameter>
<parameter name="check_properties" condition="int">100</parameter>
<parameter name="checkproperties" condition="int">100</parameter>
<parameter name="current" condition="int">0</parameter>
<parameter name="dmcwalkersperthread" condition="real">6.4000000000e+01</parameter>
<parameter name="maxcpusecs" condition="real">3.6000000000e+05</parameter>
<parameter name="record_configs" condition="int">0</parameter>
<parameter name="record_walkers" condition="int">1</parameter>
<parameter name="recordconfigs" condition="int">0</parameter>
<parameter name="recordwalkers" condition="int">1</parameter>
<parameter name="rewind" condition="int">0</parameter>
<parameter name="samples" condition="real">5.5705600000e+05</parameter>
<parameter name="samplesperthread" condition="real">6.4000000000e+01</parameter>
<parameter name="steps" condition="int">64</parameter>
<parameter name="stepsbetweensamples" condition="int">1</parameter>
<parameter name="store_configs" condition="int">0</parameter>
<parameter name="storeconfigs" condition="int">0</parameter>
<parameter name="sub_steps" condition="int">5</parameter>
<parameter name="substeps" condition="int">5</parameter>
<parameter name="tau" condition="au">3.0000000000e-01</parameter>
<parameter name="time_step" condition="au">3.0000000000e-01</parameter>
<parameter name="timestep" condition="au">3.0000000000e-01</parameter>
<parameter name="use_drift" condition="string">no</parameter>
<parameter name="usedrift" condition="string">no</parameter>
<parameter name="walkers" condition="int">4</parameter>
<parameter name="warmup_steps" condition="int">100</parameter>
<parameter name="warmupsteps" condition="int">100</parameter>
  DumpConfig==false Nothing (configurations, state) will be saved.
  Walker Samples are dumped every 1 steps.
</vmc>
  CloneManager::makeClones makes 4 clones for W/Psi/H.
  Cloning methods for both Psi and H are used
===== Memory Usage before cloning =====
Available memory on node 0, free + buffers : 90699 MB
Memory footprint by rank 0 on node 0       : 57 MB
==================================================
===== Memory Usage after cloning =====
Available memory on node 0, free + buffers : 90598 MB
Memory footprint by rank 0 on node 0       : 59 MB
==================================================
  Initial partition of walkers 0 1 2 3 4 

  Using Particle by Particle moves
  Walker moves without drift
  Total Sample Size   =557056
  Walker distribution on root = 0 1 2 3 4 
  Using Locality Approximation
===== Memory Usage after the buffer registration =====
Available memory on node 0, free + buffers : 89231 MB
Memory footprint by rank 0 on node 0       : 79 MB
==================================================
  Anonymous Buffer size per walker : 2912 Bytes.
MEMORY increase 0 MB VMC::resetRun
====================================================
  SimpleFixedNodeBranch::finalize after a VMC block
    QMC counter        = 0
    time step          = 0.3
    reference energy   = -17.254
    reference variance = 0.215246
====================================================
  QMC Execution time = 2.0590e+00 secs

=========================================================
  Start DMC
  File Root H2O.s002 append = no 
=========================================================
Using existing walkers 
  Resetting Properties of the walkers 1 x 14
  EstimatorManagerBase::add replace LocalEnergy estimator.
  Cannot make clones again. Use existing 4 clones
  Total number of walkers: 5.5706e+05
  Total weight: 5.5706e+05
  Creating WalkerController: target  number of walkers = 557056
  Using WalkerControlMPI for dynamic population control.
  START ALL OVER 
  WalkerControlBase parameters 
    maxCopy = 2
    Max Walkers per MPI rank 513
    Min Walkers per MPI rank 52
    Using non-blocking send/recv
  QMC counter      = 1
  time step        = 5.0000e-03
  effective time step = 5.0000e-03
  trial energy     = -1.7254e+01
  reference energy = -1.7254e+01
  Feedback = 1.0000e+00
  reference variance = 2.1525e-01
  target walkers = 557056
  branching cutoff scheme classic
  branch cutoff = 5.0000e+01 7.5000e+01
  Max and minimum walkers per node= 513 52
  QMC Status (BranchMode) = 0000001101
  Initial partition of walkers on a node: 0 64 128 192 256 
  Updates by particle-by-particle moves
  DMC moves are rejected when a node crossing is detected
  Using Non-local T-moves v0, M. Casula, PRB 74, 161102(R) (2006)
===== Memory Usage after the buffer registration =====
Available memory on node 0, free + buffers : 89184 MB
Memory footprint by rank 0 on node 0       : 81 MB
==================================================
SimpleFixedNodeBranch::checkParameters 
  Average Energy of a population  = -17.2473
  Energy Variance = 0.234954

  Fluctuating population
  Persistent walkers are killed after 1 MC sweeps
  BranchInterval = 1
  Steps per block = 3
  Number of blocks = 100

  DMC Engine Initialization = 1.6990e-01 secs

 Warmup is completed after 100

  TauEff     = 4.9776e-03
 TauEff/Tau = 9.9551e-01
  Etrial     = -1.7252e+01
 Running average of energy = -1.7257e+01
                  Variance = 2.4245e-01
branch cutoff = 1.0000e+01 1.5000e+01
====================================================
  SimpleFixedNodeBranch::finalize after a DMC block
    QMC counter                   = 1
    time step                     = 0.005
    effective time step           = 0.00497756
    trial energy                  = -17.2615
    reference energy              = -17.261
    reference variance            = 0.242453
    target walkers                = 557056
    branch cutoff                 = 10 15
    Max and minimum walkers per node= 513 52
    Feedback                      = 1
    QMC Status (BranchMode)       = 0000001111
====================================================
  QMC Execution time = 7.0491e+01 secs
[...]

  Input file(s): simple-H2O.xml 

=====================================================
                    QMCPACK 3.7.0

       (c) Copyright 2003-  QMCPACK developers

                    Please cite:
 J. Kim et al. J. Phys. Cond. Mat. 30 195901 (2018)
      https://doi.org/10.1088/1361-648X/aab9c3

  Git branch: HEAD
  Last git commit: bc47a435682751c26c2695a005684d95f700bebb-dirty
  Last git commit date: Fri Mar 29 14:11:40 2019 -0500
  Last git commit subject: Merge pull request #1520 from QMCPACK/rc_370
=====================================================
  Global options 

  Total number of MPI ranks = 2176
  Number of MPI groups      = 1
  MPI group ID              = 0
  Number of ranks in group  = 2176
  MPI ranks per node        = 68
  OMP 1st level threads     = 4
  OMP nested threading disabled or only 1 thread on the 2nd level

  Precision used in this calculation, see definitions in the manual:
  Base precision      = double
  Full precision      = double

  Structure-of-arrays (SoA) optimization enabled

  Input XML = simple-H2O.xml

  Project = H2O
  date    = 2021-01-23 15:49:52 PST
  host    = nid02753

 Random Number
 -------------
  Offset for the random number seeds based on time: 544

  Range of prime numbers to use as seeds over processors and threads = 3931-95971


 Particle Set 
 ------------
  Name: e
  All the species have the same mass 1
  Particle set size: 8

 Particle Set 
 ------------
  Name: ion0
  All the species have the same mass 1
  Particle set size: 3

 Wavefunction setup: 
 ------------------- 
  Name: psi0
  Created SPOSet builder named 'LCAOBSet' of type molecularorbital
  LCAO: SoaAtomicBasisSet<MultiQuintic,0>

  Distance table for similar particles (A-A):
    source/target: e
    Using structure-of-arrays (SoA) data layout
    Distance computations use open boundary conditions in 3D.


  Distance table for dissimilar particles (A-B):
    source: ion0  target: e
    Using structure-of-arrays (SoA) data layout
    Distance computations use open boundary conditions in 3D.

  AO BasisSet for O
   Angular momentum expanded in cartesian functions x^lx y^ly z^lz according to Gamess
Using log grid with default values: ri = 1e-06 rf = 100 npts = 1001
   R(n,l,m,s) 0 0 0 0
   R(n,l,m,s) 1 0 0 0
   R(n,l,m,s) 2 0 0 0
   R(n,l,m,s) 3 1 0 0
   R(n,l,m,s) 4 1 0 0
   R(n,l,m,s) 5 1 0 0
   R(n,l,m,s) 6 2 0 0
   R(n,l,m,s) 7 2 0 0
   R(n,l,m,s) 8 3 0 0
Expanding Ylm (angular function) according to Gamess using cartesian gaussians
Adding 1 cartesian gaussian orbitals for l= 0
Adding 1 cartesian gaussian orbitals for l= 0
Adding 1 cartesian gaussian orbitals for l= 0
Adding 3 cartesian gaussian orbitals for l= 1
Adding 3 cartesian gaussian orbitals for l= 1
Adding 3 cartesian gaussian orbitals for l= 1
Adding 6 cartesian gaussian orbitals for l= 2
Adding 6 cartesian gaussian orbitals for l= 2
Adding 10 cartesian gaussian orbitals for l= 3
  Setting cutoff radius 10.1859

   Maximum Angular Momentum  = 3
   Number of Radial functors = 9
   Basis size                = 34

  AO BasisSet for H
   Angular momentum expanded in cartesian functions x^lx y^ly z^lz according to Gamess
Using log grid with default values: ri = 1e-06 rf = 100 npts = 1001
   R(n,l,m,s) 0 0 0 0
   R(n,l,m,s) 1 0 0 0
   R(n,l,m,s) 2 0 0 0
   R(n,l,m,s) 3 1 0 0
   R(n,l,m,s) 4 1 0 0
   R(n,l,m,s) 5 2 0 0
Expanding Ylm (angular function) according to Gamess using cartesian gaussians
Adding 1 cartesian gaussian orbitals for l= 0
Adding 1 cartesian gaussian orbitals for l= 0
Adding 1 cartesian gaussian orbitals for l= 0
Adding 3 cartesian gaussian orbitals for l= 1
Adding 3 cartesian gaussian orbitals for l= 1
Adding 6 cartesian gaussian orbitals for l= 2
  Setting cutoff radius 19.4089

   Maximum Angular Momentum  = 2
   Number of Radial functors = 6
   Basis size                = 15

Reuse SPOSetBuilder "LCAOBSet" type MolecularOrbital
  Building SPOSet '' with '' basis set.
Reuse SPOSetBuilder "LCAOBSet" type MolecularOrbital
  Building SPOSet '' with '' basis set.
  Creating a determinant updet group=0 sposet=updet
  Reusing a SPO set updet
Using DiracDeterminant with DelayedUpdate engine
Using rank-1 Sherman-Morrison Fahy update

  Creating a determinant downdet group=1 sposet=downdet
  Reusing a SPO set downdet
Using DiracDeterminant with DelayedUpdate engine
Using rank-1 Sherman-Morrison Fahy update

  FermionWF = SlaterDet
  RadialJastrowBuilder adds a functor with cusp = -0.25
 size = 10 parameters 
 cusp = -0.25
 rcut = 10
Parameter     Name      Value
uu_0 0.029047 1 1  ON 0
uu_1 -0.100418 1 1  ON 1
uu_2 -0.17527 1 1  ON 2
uu_3 -0.223258 1 1  ON 3
uu_4 -0.272803 1 1  ON 4
uu_5 -0.325329 1 1  ON 5
uu_6 -0.362453 1 1  ON 6
uu_7 -0.395822 1 1  ON 7
uu_8 -0.426858 1 1  ON 8
uu_9 -0.439453 1 1  ON 9
  RadialJastrowBuilder adds a functor with cusp = -0.5
 size = 10 parameters 
 cusp = -0.5
 rcut = 10
Parameter     Name      Value
ud_0 0.930669 1 1  ON 0
ud_1 0.628359 1 1  ON 1
ud_2 0.463024 1 1  ON 2
ud_3 0.375585 1 1  ON 3
ud_4 0.333251 1 1  ON 4
ud_5 0.297451 1 1  ON 5
ud_6 0.255069 1 1  ON 6
ud_7 0.197016 1 1  ON 7
ud_8 0.135704 1 1  ON 8
ud_9 0.11181 1 1  ON 9
 size = 10 parameters 
 cusp = 0
 rcut = 10
Parameter     Name      Value
eO_0 -4.0158 1 1  ON 0
eO_1 -3.62877 1 1  ON 1
eO_2 -2.75734 1 1  ON 2
eO_3 -1.83881 1 1  ON 3
eO_4 -1.15124 1 1  ON 4
eO_5 -0.462677 1 1  ON 5
eO_6 -0.212032 1 1  ON 6
eO_7 -0.139318 1 1  ON 7
eO_8 0.513465 1 1  ON 8
eO_9 6.44894 1 1  ON 9
 size = 10 parameters 
 cusp = 0
 rcut = 10
Parameter     Name      Value
eH_0 -0.335752 1 1  ON 0
eH_1 -0.295754 1 1  ON 1
eH_2 -0.27382 1 1  ON 2
eH_3 -0.226322 1 1  ON 3
eH_4 -0.176979 1 1  ON 4
eH_5 -0.176265 1 1  ON 5
eH_6 -0.189957 1 1  ON 6
eH_7 -0.181647 1 1  ON 7
eH_8 -0.038387 1 1  ON 8
eH_9 0.345305 1 1  ON 9
Parameter     Name      Value
uuO_0 8.22771e-06 1 1  ON 0
uuO_1 2.48082e-06 1 1  ON 1
uuO_2 -5.35407e-06 1 1  ON 2
uuO_3 -1.11264e-05 1 1  ON 3
uuO_4 -2.20801e-06 1 1  ON 4
uuO_5 5.21312e-06 1 1  ON 5
uuO_6 -1.53787e-05 1 1  ON 6
uuO_7 8.89903e-06 1 1  ON 7
uuO_8 6.25726e-06 1 1  ON 8
uuO_9 3.21458e-06 1 1  ON 9
uuO_10 -7.71674e-06 1 1  ON 10
uuO_11 -5.27568e-06 1 1  ON 11
uuO_12 -1.77846e-06 1 1  ON 12
uuO_13 7.92623e-06 1 1  ON 13
uuO_14 1.76741e-06 1 1  ON 14
uuO_15 5.45136e-08 1 1  ON 15
uuO_16 2.80142e-06 1 1  ON 16
uuO_17 4.57728e-06 1 1  ON 17
uuO_18 7.63461e-06 1 1  ON 18
uuO_19 -9.51067e-07 1 1  ON 19
uuO_20 -2.34413e-06 1 1  ON 20
uuO_21 -1.87878e-06 1 1  ON 21
uuO_22 3.93736e-07 1 1  ON 22
uuO_23 5.06535e-07 1 1  ON 23
uuO_24 5.08672e-07 1 1  ON 24
uuO_25 -1.35877e-07 1 1  ON 25
Parameter     Name      Value
udO_0 -6.93953e-06 1 1  ON 0
udO_1 2.63417e-05 1 1  ON 1
udO_2 4.04608e-05 1 1  ON 2
udO_3 -8.00268e-06 1 1  ON 3
udO_4 -5.3968e-06 1 1  ON 4
udO_5 6.69737e-06 1 1  ON 5
udO_6 5.43395e-05 1 1  ON 6
udO_7 -6.33685e-06 1 1  ON 7
udO_8 3.68047e-05 1 1  ON 8
udO_9 -2.99606e-05 1 1  ON 9
udO_10 1.99366e-06 1 1  ON 10
udO_11 -3.22271e-05 1 1  ON 11
udO_12 -8.09167e-06 1 1  ON 12
udO_13 4.15739e-06 1 1  ON 13
udO_14 4.84394e-06 1 1  ON 14
udO_15 3.56365e-07 1 1  ON 15
udO_16 3.78633e-05 1 1  ON 16
udO_17 -1.41834e-05 1 1  ON 17
udO_18 2.28269e-05 1 1  ON 18
udO_19 1.29239e-06 1 1  ON 19
udO_20 -4.93581e-06 1 1  ON 20
udO_21 -3.05254e-06 1 1  ON 21
udO_22 9.87029e-08 1 1  ON 22
udO_23 1.84429e-06 1 1  ON 23
udO_24 2.97056e-07 1 1  ON 24
udO_25 -4.3643e-08 1 1  ON 25
Parameter     Name      Value
uuH_0 1.21983e-05 1 1  ON 0
uuH_1 1.70285e-05 1 1  ON 1
uuH_2 -1.60944e-05 1 1  ON 2
uuH_3 -1.21461e-05 1 1  ON 3
uuH_4 5.89794e-08 1 1  ON 4
uuH_5 -7.84971e-07 1 1  ON 5
uuH_6 7.75018e-06 1 1  ON 6
uuH_7 -2.74556e-05 1 1  ON 7
uuH_8 -1.37775e-05 1 1  ON 8
uuH_9 -1.14428e-05 1 1  ON 9
uuH_10 -1.06388e-05 1 1  ON 10
uuH_11 2.73117e-05 1 1  ON 11
uuH_12 8.30376e-07 1 1  ON 12
uuH_13 1.58423e-05 1 1  ON 13
uuH_14 -2.02534e-06 1 1  ON 14
uuH_15 1.23654e-07 1 1  ON 15
uuH_16 1.05822e-05 1 1  ON 16
uuH_17 1.77824e-05 1 1  ON 17
uuH_18 -2.15364e-05 1 1  ON 18
uuH_19 2.19459e-06 1 1  ON 19
uuH_20 -8.9199e-06 1 1  ON 20
uuH_21 3.22949e-06 1 1  ON 21
uuH_22 -5.14014e-07 1 1  ON 22
uuH_23 2.92814e-06 1 1  ON 23
uuH_24 -7.97265e-07 1 1  ON 24
uuH_25 1.41116e-07 1 1  ON 25
Parameter     Name      Value
udH_0 -2.54349e-06 1 1  ON 0
udH_1 -8.33732e-06 1 1  ON 1
udH_2 3.04386e-06 1 1  ON 2
udH_3 -3.54249e-06 1 1  ON 3
udH_4 -2.70133e-06 1 1  ON 4
udH_5 1.45878e-06 1 1  ON 5
udH_6 7.95043e-06 1 1  ON 6
udH_7 -1.87033e-05 1 1  ON 7
udH_8 -2.24168e-06 1 1  ON 8
udH_9 -4.86877e-06 1 1  ON 9
udH_10 -6.17441e-06 1 1  ON 10
udH_11 1.51731e-05 1 1  ON 11
udH_12 -9.52902e-07 1 1  ON 12
udH_13 9.6868e-06 1 1  ON 13
udH_14 -1.64005e-06 1 1  ON 14
udH_15 2.57667e-07 1 1  ON 15
udH_16 1.39257e-05 1 1  ON 16
udH_17 8.67619e-06 1 1  ON 17
udH_18 -1.64788e-05 1 1  ON 18
udH_19 2.49493e-06 1 1  ON 19
udH_20 -7.72623e-06 1 1  ON 20
udH_21 3.43106e-06 1 1  ON 21
udH_22 -6.6016e-07 1 1  ON 22
udH_23 2.3902e-06 1 1  ON 23
udH_24 -9.16932e-07 1 1  ON 24
udH_25 1.90216e-07 1 1  ON 25
  QMCHamiltonian::addOperator Kinetic to H, physical Hamiltonian 
  QMCHamiltonian::addOperator ElecElec to H, physical Hamiltonian 
QMCHamiltonian::addOperatorType added type coulomb named ElecElec

  ECPotential builder for pseudopotential 

  Adding pseudopotential for O
   Linear grid  ri=0 rf=10 npts = 10001
    ECPComponentBuilder::buildSemiLocalAndLocal 
    Assuming Hartree unit
   Number of angular momentum channels 2
   Maximum angular momentum channel 1
   Creating a Linear Grid Rmax=1.31
  Using global grid with delta = 0.001
   Making L=1 a local potential with a radial cutoff of 9.999
    Non-local pseudopotential parameters
    Maximum angular mementum = 0
    Number of non-local channels = 1
       l(0)=0
    Cutoff radius = 1.31
    Spherical grids and weights: 
                        1                 0                 0       0.08333333333
                       -1   1.224646799e-16                 0       0.08333333333
             0.4472135955       0.894427191                 0       0.08333333333
            -0.4472135955      0.7236067977      0.5257311121       0.08333333333
             0.4472135955      0.2763932023      0.8506508084       0.08333333333
            -0.4472135955     -0.2763932023      0.8506508084       0.08333333333
             0.4472135955     -0.7236067977      0.5257311121       0.08333333333
            -0.4472135955      -0.894427191   1.095357397e-16       0.08333333333
             0.4472135955     -0.7236067977     -0.5257311121       0.08333333333
            -0.4472135955     -0.2763932023     -0.8506508084       0.08333333333
             0.4472135955      0.2763932023     -0.8506508084       0.08333333333
            -0.4472135955      0.7236067977     -0.5257311121       0.08333333333
    Maximum cutoff radius 1.31

  Adding pseudopotential for H
   Linear grid  ri=0 rf=10 npts = 10001
    ECPComponentBuilder::buildSemiLocalAndLocal 
    Assuming Hartree unit
    Only one vps is found. Set the local component=0
   Number of angular momentum channels 1
   Maximum angular momentum channel 0
   Creating a Linear Grid Rmax=1.17
  Using global grid with delta = 0.001
   Making L=0 a local potential with a radial cutoff of 9.999
  QMCHamiltonian::addOperator LocalECP to H, physical Hamiltonian 

  Using NonLocalECP potential 
    Maximum grid on a sphere for NonLocalECPotential: 12
  QMCHamiltonian::addOperator NonLocalECP to H, physical Hamiltonian 
QMCHamiltonian::addOperatorType added type pseudo named ELEMENT-ECP

  Distance table for similar particles (A-A):
    source/target: ion0
    Using structure-of-arrays (SoA) data layout
    Distance computations use open boundary conditions in 3D.

  QMCHamiltonian::addOperator IonIon to H, physical Hamiltonian 
QMCHamiltonian::addOperatorType added type coulomb named IonIon

  QMCHamiltonian::add2WalkerProperty added
    5 to P::PropertyList 
    0 to P::Collectables 
    starting Index of the observables in P::PropertyList = 9
<init source="ion0" target="e">
</init>
ParticleSetPool::randomize 
  Initialization Execution time = 1.59 secs
=========================================================
 Summary of QMC systems 
=========================================================
ParticleSetPool has: 

  ParticleSet e : 0 4 8 

    8

    u  2.6831802557e-01 -4.0192292237e-01 -5.3889276898e-01
    u -5.2610652129e-01  4.9637152590e-01 -2.7735381018e-02
    u  1.3301250912e-01  6.6020510635e-01  2.6529022749e-01
    u -5.7570326760e-01 -1.6513239254e+00  1.4871964159e+00
    d  2.3191726693e-01 -6.6720942356e-01  1.5807587181e-01
    d -6.8672007741e-01  1.9196023205e-02 -2.2801110238e-01
    d  6.1609247708e-01  2.1486229239e-01  3.1337879607e-01
    d -1.6083700242e-02  1.2901058740e+00  1.8177168515e+00

  ParticleSet ion0 : 0 1 3 

    3

    O  0.0000000000e+00  0.0000000000e+00  0.0000000000e+00
    H  0.0000000000e+00 -1.4308249289e+00  1.1078707576e+00
    H  0.0000000000e+00  1.4308249289e+00  1.1078707576e+00

  Hamiltonian h0
  Kinetic         Kinetic energy
  ElecElec        CoulombAA source/target e

  LocalECP        LocalECPotential: ion0
  NonLocalECP     NonLocalECPotential: ion0
  IonIon          CoulombAA source/target ion0


=========================================================
  Start VMC
  File Root H2O.s001 append = no 
=========================================================
  Adding 4 walkers to 0 existing sets
  Total number of walkers: 8.7040000000e+03
  Total weight: 8.7040000000e+03
  Resetting Properties of the walkers 1 x 14

<vmc function="put">
  qmc_counter=0  my_counter=0
  time step      = 3.0000000000e-01
  blocks         = 1
  steps          = 64
  substeps       = 5
  current        = 0
  target samples = 5.5705600000e+05
  walkers/mpi    = 4

  stepsbetweensamples = 1
<parameter name="blocks" condition="int">1</parameter>
<parameter name="blocks_between_recompute" condition="int">0</parameter>
<parameter name="check_properties" condition="int">100</parameter>
<parameter name="checkproperties" condition="int">100</parameter>
<parameter name="current" condition="int">0</parameter>
<parameter name="dmcwalkersperthread" condition="real">6.4000000000e+01</parameter>
<parameter name="maxcpusecs" condition="real">3.6000000000e+05</parameter>
<parameter name="record_configs" condition="int">0</parameter>
<parameter name="record_walkers" condition="int">1</parameter>
<parameter name="recordconfigs" condition="int">0</parameter>
<parameter name="recordwalkers" condition="int">1</parameter>
<parameter name="rewind" condition="int">0</parameter>
<parameter name="samples" condition="real">5.5705600000e+05</parameter>
<parameter name="samplesperthread" condition="real">6.4000000000e+01</parameter>
<parameter name="steps" condition="int">64</parameter>
<parameter name="stepsbetweensamples" condition="int">1</parameter>
<parameter name="store_configs" condition="int">0</parameter>
<parameter name="storeconfigs" condition="int">0</parameter>
<parameter name="sub_steps" condition="int">5</parameter>
<parameter name="substeps" condition="int">5</parameter>
<parameter name="tau" condition="au">3.0000000000e-01</parameter>
<parameter name="time_step" condition="au">3.0000000000e-01</parameter>
<parameter name="timestep" condition="au">3.0000000000e-01</parameter>
<parameter name="use_drift" condition="string">no</parameter>
<parameter name="usedrift" condition="string">no</parameter>
<parameter name="walkers" condition="int">4</parameter>
<parameter name="warmup_steps" condition="int">100</parameter>
<parameter name="warmupsteps" condition="int">100</parameter>
  DumpConfig==false Nothing (configurations, state) will be saved.
  Walker Samples are dumped every 1 steps.
</vmc>
  CloneManager::makeClones makes 4 clones for W/Psi/H.
  Cloning methods for both Psi and H are used
===== Memory Usage before cloning =====
Available memory on node 0, free + buffers : 90803 MB
Memory footprint by rank 0 on node 0       : 57 MB
==================================================
===== Memory Usage after cloning =====
Available memory on node 0, free + buffers : 90658 MB
Memory footprint by rank 0 on node 0       : 59 MB
==================================================
  Initial partition of walkers 0 1 2 3 4 

  Using Particle by Particle moves
  Walker moves without drift
  Total Sample Size   =557056
  Walker distribution on root = 0 1 2 3 4 
  Using Locality Approximation
===== Memory Usage after the buffer registration =====
Available memory on node 0, free + buffers : 89270 MB
Memory footprint by rank 0 on node 0       : 78 MB
==================================================
  Anonymous Buffer size per walker : 2912 Bytes.
MEMORY increase 0 MB VMC::resetRun
====================================================
  SimpleFixedNodeBranch::finalize after a VMC block
    QMC counter        = 0
    time step          = 0.3
    reference energy   = -17.2416
    reference variance = 0.239703
====================================================
  QMC Execution time = 2.1761e+00 secs

=========================================================
  Start DMC
  File Root H2O.s002 append = no 
=========================================================
Using existing walkers 
  Resetting Properties of the walkers 1 x 14
  EstimatorManagerBase::add replace LocalEnergy estimator.
  Cannot make clones again. Use existing 4 clones
  Total number of walkers: 5.5706e+05
  Total weight: 5.5706e+05
  Creating WalkerController: target  number of walkers = 557056
  Using WalkerControlMPI for dynamic population control.
  START ALL OVER 
  WalkerControlBase parameters 
    maxCopy = 2
    Max Walkers per MPI rank 513
    Min Walkers per MPI rank 52
    Using non-blocking send/recv
  QMC counter      = 1
  time step        = 5.0000e-03
  effective time step = 5.0000e-03
  trial energy     = -1.7242e+01
  reference energy = -1.7242e+01
  Feedback = 1.0000e+00
  reference variance = 2.3970e-01
  target walkers = 557056
  branching cutoff scheme classic
  branch cutoff = 5.0000e+01 7.5000e+01
  Max and minimum walkers per node= 513 52
  QMC Status (BranchMode) = 0000001101
  Initial partition of walkers on a node: 0 64 128 192 256 
  Updates by particle-by-particle moves
  DMC moves are rejected when a node crossing is detected
  Using Non-local T-moves v0, M. Casula, PRB 74, 161102(R) (2006)
===== Memory Usage after the buffer registration =====
Available memory on node 0, free + buffers : 89216 MB
Memory footprint by rank 0 on node 0       : 81 MB
==================================================
SimpleFixedNodeBranch::checkParameters 
  Average Energy of a population  = -17.2469
  Energy Variance = 0.23211

  Fluctuating population
  Persistent walkers are killed after 1 MC sweeps
  BranchInterval = 1
  Steps per block = 3
  Number of blocks = 100

  DMC Engine Initialization = 2.2357e-01 secs

 Warmup is completed after 100

  TauEff     = 4.9776e-03
 TauEff/Tau = 9.9552e-01
  Etrial     = -1.7241e+01
 Running average of energy = -1.7257e+01
                  Variance = 2.4342e-01
branch cutoff = 1.0000e+01 1.5000e+01
====================================================
  SimpleFixedNodeBranch::finalize after a DMC block
    QMC counter                   = 1
    time step                     = 0.005
    effective time step           = 0.00497758
    trial energy                  = -17.261
    reference energy              = -17.261
    reference variance            = 0.243423
    target walkers                = 557056
    branch cutoff                 = 10 15
    Max and minimum walkers per node= 513 52
    Feedback                      = 1
    QMC Status (BranchMode)       = 0000001111
====================================================
  QMC Execution time = 7.2522e+01 secs
  Total Execution time = 7.4723e+01 secs

=========================================================
  A new xml input file : H2O.s002.cont.xml
endTime:Sat Jan 23 15:55:15 PST 2021


====================
iteration 2
