Starting..
====================
iteration 0
Starting job in nedd policy..
startTime:Mon Dec  7 17:52:16 PST 2020

LAMMPS (20 Apr 2018)
OMP_NUM_THREADS environment is not set. Defaulting to 1 thread. (../comm.cpp:90)
  using 1 OpenMP thread(s) per MPI task
Lattice spacing in x,y,z = 1.82574 1.82574 1.82574
Created orthogonal box = (0 0 -0.182574) to (73.0297 73.0297 0.182574)
  64 by 34 by 1 MPI processor grid
Created 3200 atoms
  Time spent = 0.0065639 secs
Neighbor list info ...
  update every 1 steps, delay 0 steps, check yes
  max neighbors/atom: 2000, page size: 100000
  master list distance cutoff = 2.8
  ghost atom cutoff = 2.8
  binsize = 1.4, bins = 53 53 1
  1 neighbor lists, perpetual/occasional/extra = 1 0 0
  (1) pair lj/cut, perpetual
      attributes: half, newton on
      pair build: half/bin/atomonly/newton
      stencil: half/bin/2d/newton
      bin: standard
Setting up Verlet run ...
  Unit style    : lj
  Current step  : 0
  Time step     : 0.005
Per MPI rank memory allocation (min/avg/max) = 2.702 | 2.797 | 2.952 Mbytes
Step Temp E_pair E_mol TotEng Press 
       0            1     -1.56492            0   -0.5652325   -1.5346995 
    1000    1.0063515   -1.5732592            0  -0.56722209    1.0061204 
    2000   0.95792094   -1.5781469            0  -0.62052531   0.96571772 
    3000   0.98401573    -1.588743            0  -0.60503472   0.97094222 
    4000   0.99740124   -1.5757024            0  -0.57861287   0.99998732 
    5000    1.0348886   -1.6022633            0  -0.56769811   0.97795086 
Loop time of 3.13884 on 2176 procs for 5000 steps with 3200 atoms

Performance: 688151.634 tau/day, 1592.944 timesteps/s
98.3% CPU use with 2176 MPI tasks x 1 OpenMP threads

MPI task timing breakdown:
Section |  min time  |  avg time  |  max time  |%varavg| %total
---------------------------------------------------------------
Pair    | 0.011936   | 0.014395   | 0.0197     |   0.7 |  0.46
Neigh   | 0.0046198  | 0.005372   | 0.0081823  |   0.6 |  0.17
Comm    | 0.80639    | 1.0822     | 1.4044     |  13.9 | 34.48
Output  | 0.0036228  | 0.0039395  | 0.004225   |   0.2 |  0.13
Modify  | 0.030588   | 0.033128   | 0.044216   |   0.8 |  1.06
Other   |            | 2          |            |       | 63.71

Nlocal:    1.47059 ave 4 max 0 min
Histogram: 156 0 945 0 0 972 0 101 0 2
Nghost:    29.7891 ave 39 max 22 min
Histogram: 19 78 286 246 701 556 148 126 15 1
Neighs:    10.324 ave 33 max 0 min
Histogram: 178 392 523 392 399 200 61 27 1 3

Total # of neighbors = 22465
Ave neighs/atom = 7.02031
Neighbor list builds = 601
Dangerous builds = 0
Setting up Verlet run ...
  Unit style    : lj
  Current step  : 0
  Time step     : 0.005
Per MPI rank memory allocation (min/avg/max) = 3.327 | 3.327 | 3.327 Mbytes
Step Temp c_vacf[4] v_vacf 
       0    1.0348886    2.0691304            0 
    5000      1.01618  0.010970342    0.3062452 
   10000    1.0210865 0.0018251732    0.3939561 
   15000    1.0201407 -0.0051204578   0.50191967 
   20000    1.0169872  0.032935727   0.54134779 
   25000    1.0117798  -0.01580966     0.615112 
   30000    1.0284167 -0.0089673686   0.71447644 
   35000    1.0072394 -0.027346896   0.70401385 
   40000    1.0180797 -0.024551015   0.74660961 
   45000    1.0221593 -0.0059135592   0.75865906 
   50000    1.0150177  -0.04225538   0.87981449 
   55000    1.0190131 -0.039301263   0.91325887 
   60000    1.0153908  0.068561184   0.90266577 
Loop time of 50.6265 on 2176 procs for 60000 steps with 3200 atoms

Performance: 511984.712 tau/day, 1185.150 timesteps/s
98.7% CPU use with 2176 MPI tasks x 1 OpenMP threads

MPI task timing breakdown:
Section |  min time  |  avg time  |  max time  |%varavg| %total
---------------------------------------------------------------
Pair    | 0.16414    | 0.17322    | 0.24622    |   2.2 |  0.34
Neigh   | 0.064176   | 0.069424   | 0.10517    |   2.2 |  0.14
Comm    | 9.1615     | 12.093     | 15.742     |  49.7 | 23.89
Output  | 0.010984   | 0.011345   | 0.012306   |   0.2 |  0.02
Modify  | 25.45      | 29.178     | 32.114     |  32.0 | 57.63
Other   |            | 9.102      |            |       | 17.98

Nlocal:    1.47059 ave 4 max 0 min
Histogram: 157 0 936 0 0 987 0 94 0 2
Nghost:    29.9081 ave 38 max 20 min
Histogram: 9 24 120 260 239 579 567 278 84 16
Neighs:    10.284 ave 33 max 0 min
Histogram: 171 403 492 438 388 205 50 19 8 2

Total # of neighbors = 22378
Ave neighs/atom = 6.99313
Neighbor list builds = 7770
Dangerous builds = 0
Total wall time: 0:00:53
endTime:Mon Dec  7 17:53:19 PST 2020


Starting job in lowerRouterStall policy..
startTime:Mon Dec  7 17:53:19 PST 2020

LAMMPS (20 Apr 2018)
OMP_NUM_THREADS environment is not set. Defaulting to 1 thread. (../comm.cpp:90)
  using 1 OpenMP thread(s) per MPI task
Lattice spacing in x,y,z = 1.82574 1.82574 1.82574
Created orthogonal box = (0 0 -0.182574) to (73.0297 73.0297 0.182574)
  64 by 34 by 1 MPI processor grid
Created 3200 atoms
  Time spent = 0.00767303 secs
Neighbor list info ...
  update every 1 steps, delay 0 steps, check yes
  max neighbors/atom: 2000, page size: 100000
  master list distance cutoff = 2.8
  ghost atom cutoff = 2.8
  binsize = 1.4, bins = 53 53 1
  1 neighbor lists, perpetual/occasional/extra = 1 0 0
  (1) pair lj/cut, perpetual
      attributes: half, newton on
      pair build: half/bin/atomonly/newton
      stencil: half/bin/2d/newton
      bin: standard
Setting up Verlet run ...
  Unit style    : lj
  Current step  : 0
  Time step     : 0.005
Per MPI rank memory allocation (min/avg/max) = 2.702 | 2.797 | 2.952 Mbytes
Step Temp E_pair E_mol TotEng Press 
       0            1     -1.56492            0   -0.5652325   -1.5346995 
    1000    1.0063515   -1.5732592            0  -0.56722209    1.0061204 
    2000   0.95792094   -1.5781469            0  -0.62052531   0.96571772 
    3000   0.98401573    -1.588743            0  -0.60503472   0.97094222 
    4000   0.99740124   -1.5757024            0  -0.57861287   0.99998732 
    5000    1.0348886   -1.6022633            0  -0.56769811   0.97795086 
Loop time of 2.60583 on 2176 procs for 5000 steps with 3200 atoms

Performance: 828911.762 tau/day, 1918.777 timesteps/s
98.0% CPU use with 2176 MPI tasks x 1 OpenMP threads

MPI task timing breakdown:
Section |  min time  |  avg time  |  max time  |%varavg| %total
---------------------------------------------------------------
Pair    | 0.011888   | 0.014498   | 0.019619   |   0.6 |  0.56
Neigh   | 0.0047112  | 0.0053716  | 0.0081153  |   0.6 |  0.21
Comm    | 0.63887    | 0.88849    | 1.3149     |  18.4 | 34.10
Output  | 0.0036149  | 0.0048236  | 0.0052612  |   0.4 |  0.19
Modify  | 0.030727   | 0.033452   | 0.043123   |   0.7 |  1.28
Other   |            | 1.659      |            |       | 63.67

Nlocal:    1.47059 ave 4 max 0 min
Histogram: 156 0 945 0 0 972 0 101 0 2
Nghost:    29.7891 ave 39 max 22 min
Histogram: 19 78 286 246 701 556 148 126 15 1
Neighs:    10.324 ave 33 max 0 min
Histogram: 178 392 523 392 399 200 61 27 1 3

Total # of neighbors = 22465
Ave neighs/atom = 7.02031
Neighbor list builds = 601
Dangerous builds = 0
Setting up Verlet run ...
  Unit style    : lj
  Current step  : 0
  Time step     : 0.005
Per MPI rank memory allocation (min/avg/max) = 3.327 | 3.327 | 3.327 Mbytes
Step Temp c_vacf[4] v_vacf 
       0    1.0348886    2.0691304            0 
    5000      1.01618  0.010970342    0.3062452 
   10000    1.0210865 0.0018251732    0.3939561 
   15000    1.0201407 -0.0051204578   0.50191967 
   20000    1.0169872  0.032935727   0.54134779 
   25000    1.0117798  -0.01580966     0.615112 
   30000    1.0284167 -0.0089673686   0.71447644 
   35000    1.0072394 -0.027346896   0.70401385 
   40000    1.0180797 -0.024551015   0.74660961 
   45000    1.0221593 -0.0059135592   0.75865906 
   50000    1.0150177  -0.04225538   0.87981449 
   55000    1.0190131 -0.039301263   0.91325887 
   60000    1.0153908  0.068561184   0.90266577 
Loop time of 48.0688 on 2176 procs for 60000 steps with 3200 atoms

Performance: 539227.017 tau/day, 1248.211 timesteps/s
98.6% CPU use with 2176 MPI tasks x 1 OpenMP threads

MPI task timing breakdown:
Section |  min time  |  avg time  |  max time  |%varavg| %total
---------------------------------------------------------------
Pair    | 0.16645    | 0.17447    | 0.2518     |   2.1 |  0.36
Neigh   | 0.064465   | 0.069519   | 0.1059     |   2.2 |  0.14
Comm    | 7.8535     | 10.867     | 15.789     |  64.1 | 22.61
Output  | 0.011421   | 0.0117     | 0.012498   |   0.1 |  0.02
Modify  | 23.385     | 28.322     | 31.362     |  39.7 | 58.92
Other   |            | 8.624      |            |       | 17.94

Nlocal:    1.47059 ave 4 max 0 min
Histogram: 157 0 936 0 0 987 0 94 0 2
Nghost:    29.9081 ave 38 max 20 min
Histogram: 9 24 120 260 239 579 567 278 84 16
Neighs:    10.284 ave 33 max 0 min
Histogram: 171 403 492 438 388 205 50 19 8 2

Total # of neighbors = 22378
Ave neighs/atom = 6.99313
Neighbor list builds = 7770
Dangerous builds = 0
Total wall time: 0:00:51
endTime:Mon Dec  7 17:54:21 PST 2020


Starting job in fewerSwitch policy..
startTime:Mon Dec  7 17:54:21 PST 2020

LAMMPS (20 Apr 2018)
OMP_NUM_THREADS environment is not set. Defaulting to 1 thread. (../comm.cpp:90)
  using 1 OpenMP thread(s) per MPI task
Lattice spacing in x,y,z = 1.82574 1.82574 1.82574
Created orthogonal box = (0 0 -0.182574) to (73.0297 73.0297 0.182574)
  64 by 34 by 1 MPI processor grid
Created 3200 atoms
  Time spent = 0.00908089 secs
Neighbor list info ...
  update every 1 steps, delay 0 steps, check yes
  max neighbors/atom: 2000, page size: 100000
  master list distance cutoff = 2.8
  ghost atom cutoff = 2.8
  binsize = 1.4, bins = 53 53 1
  1 neighbor lists, perpetual/occasional/extra = 1 0 0
  (1) pair lj/cut, perpetual
      attributes: half, newton on
      pair build: half/bin/atomonly/newton
      stencil: half/bin/2d/newton
      bin: standard
Setting up Verlet run ...
  Unit style    : lj
  Current step  : 0
  Time step     : 0.005
Per MPI rank memory allocation (min/avg/max) = 2.702 | 2.797 | 2.952 Mbytes
Step Temp E_pair E_mol TotEng Press 
       0            1     -1.56492            0   -0.5652325   -1.5346995 
    1000    1.0063515   -1.5732592            0  -0.56722209    1.0061204 
    2000   0.95792094   -1.5781469            0  -0.62052531   0.96571772 
    3000   0.98401573    -1.588743            0  -0.60503472   0.97094222 
    4000   0.99740124   -1.5757024            0  -0.57861287   0.99998732 
    5000    1.0348886   -1.6022633            0  -0.56769811   0.97795086 
Loop time of 2.37029 on 2176 procs for 5000 steps with 3200 atoms

Performance: 911279.224 tau/day, 2109.443 timesteps/s
97.8% CPU use with 2176 MPI tasks x 1 OpenMP threads

MPI task timing breakdown:
Section |  min time  |  avg time  |  max time  |%varavg| %total
---------------------------------------------------------------
Pair    | 0.011926   | 0.014475   | 0.019783   |   0.6 |  0.61
Neigh   | 0.0046337  | 0.0053467  | 0.00826    |   0.6 |  0.23
Comm    | 0.65435    | 0.85759    | 1.1933     |  14.7 | 36.18
Output  | 0.0031128  | 0.0033487  | 0.0035071  |   0.1 |  0.14
Modify  | 0.03091    | 0.033428   | 0.044359   |   0.7 |  1.41
Other   |            | 1.456      |            |       | 61.43

Nlocal:    1.47059 ave 4 max 0 min
Histogram: 156 0 945 0 0 972 0 101 0 2
Nghost:    29.7891 ave 39 max 22 min
Histogram: 19 78 286 246 701 556 148 126 15 1
Neighs:    10.324 ave 33 max 0 min
Histogram: 178 392 523 392 399 200 61 27 1 3

Total # of neighbors = 22465
Ave neighs/atom = 7.02031
Neighbor list builds = 601
Dangerous builds = 0
Setting up Verlet run ...
  Unit style    : lj
  Current step  : 0
  Time step     : 0.005
Per MPI rank memory allocation (min/avg/max) = 3.327 | 3.327 | 3.327 Mbytes
Step Temp c_vacf[4] v_vacf 
       0    1.0348886    2.0691304            0 
    5000      1.01618  0.010970342    0.3062452 
   10000    1.0210865 0.0018251732    0.3939561 
   15000    1.0201407 -0.0051204578   0.50191967 
   20000    1.0169872  0.032935727   0.54134779 
   25000    1.0117798  -0.01580966     0.615112 
   30000    1.0284167 -0.0089673686   0.71447644 
   35000    1.0072394 -0.027346896   0.70401385 
   40000    1.0180797 -0.024551015   0.74660961 
   45000    1.0221593 -0.0059135592   0.75865906 
   50000    1.0150177  -0.04225538   0.87981449 
   55000    1.0190131 -0.039301263   0.91325887 
   60000    1.0153908  0.068561184   0.90266577 
Loop time of 49.5886 on 2176 procs for 60000 steps with 3200 atoms

Performance: 522701.078 tau/day, 1209.956 timesteps/s
98.7% CPU use with 2176 MPI tasks x 1 OpenMP threads

MPI task timing breakdown:
Section |  min time  |  avg time  |  max time  |%varavg| %total
---------------------------------------------------------------
Pair    | 0.16519    | 0.17437    | 0.2451     |   2.1 |  0.35
Neigh   | 0.064713   | 0.069387   | 0.10474    |   2.2 |  0.14
Comm    | 8.8237     | 11.675     | 15.921     |  51.3 | 23.54
Output  | 0.011057   | 0.012005   | 0.013218   |   0.4 |  0.02
Modify  | 24.436     | 28.754     | 31.687     |  32.9 | 57.98
Other   |            | 8.904      |            |       | 17.96

Nlocal:    1.47059 ave 4 max 0 min
Histogram: 157 0 936 0 0 987 0 94 0 2
Nghost:    29.9081 ave 38 max 20 min
Histogram: 9 24 120 260 239 579 567 278 84 16
Neighs:    10.284 ave 33 max 0 min
Histogram: 171 403 492 438 388 205 50 19 8 2

Total # of neighbors = 22378
Ave neighs/atom = 6.99313
Neighbor list builds = 7770
Dangerous builds = 0
Total wall time: 0:00:52
endTime:Mon Dec  7 17:55:27 PST 2020


Starting job in random policy..
startTime:Mon Dec  7 17:55:27 PST 2020

LAMMPS (20 Apr 2018)
OMP_NUM_THREADS environment is not set. Defaulting to 1 thread. (../comm.cpp:90)
  using 1 OpenMP thread(s) per MPI task
Lattice spacing in x,y,z = 1.82574 1.82574 1.82574
Created orthogonal box = (0 0 -0.182574) to (73.0297 73.0297 0.182574)
  64 by 34 by 1 MPI processor grid
Created 3200 atoms
  Time spent = 0.00770497 secs
Neighbor list info ...
  update every 1 steps, delay 0 steps, check yes
  max neighbors/atom: 2000, page size: 100000
  master list distance cutoff = 2.8
  ghost atom cutoff = 2.8
  binsize = 1.4, bins = 53 53 1
  1 neighbor lists, perpetual/occasional/extra = 1 0 0
  (1) pair lj/cut, perpetual
      attributes: half, newton on
      pair build: half/bin/atomonly/newton
      stencil: half/bin/2d/newton
      bin: standard
Setting up Verlet run ...
  Unit style    : lj
  Current step  : 0
  Time step     : 0.005
Per MPI rank memory allocation (min/avg/max) = 2.702 | 2.797 | 2.952 Mbytes
Step Temp E_pair E_mol TotEng Press 
       0            1     -1.56492            0   -0.5652325   -1.5346995 
    1000    1.0063515   -1.5732592            0  -0.56722209    1.0061204 
    2000   0.95792094   -1.5781469            0  -0.62052531   0.96571772 
    3000   0.98401573    -1.588743            0  -0.60503472   0.97094222 
    4000   0.99740124   -1.5757024            0  -0.57861287   0.99998732 
    5000    1.0348886   -1.6022633            0  -0.56769811   0.97795086 
Loop time of 3.34322 on 2176 procs for 5000 steps with 3200 atoms

Performance: 646082.827 tau/day, 1495.562 timesteps/s
98.3% CPU use with 2176 MPI tasks x 1 OpenMP threads

MPI task timing breakdown:
Section |  min time  |  avg time  |  max time  |%varavg| %total
---------------------------------------------------------------
Pair    | 0.011929   | 0.014394   | 0.020324   |   0.7 |  0.43
Neigh   | 0.0046446  | 0.0053845  | 0.0082927  |   0.6 |  0.16
Comm    | 0.7874     | 1.1051     | 1.4981     |  17.5 | 33.06
Output  | 0.0041537  | 0.0047392  | 0.0050273  |   0.2 |  0.14
Modify  | 0.030889   | 0.033134   | 0.044244   |   0.8 |  0.99
Other   |            | 2.18       |            |       | 65.22

Nlocal:    1.47059 ave 4 max 0 min
Histogram: 156 0 945 0 0 972 0 101 0 2
Nghost:    29.7891 ave 39 max 22 min
Histogram: 19 78 286 246 701 556 148 126 15 1
Neighs:    10.324 ave 33 max 0 min
Histogram: 178 392 523 392 399 200 61 27 1 3

Total # of neighbors = 22465
Ave neighs/atom = 7.02031
Neighbor list builds = 601
Dangerous builds = 0
Setting up Verlet run ...
  Unit style    : lj
  Current step  : 0
  Time step     : 0.005
Per MPI rank memory allocation (min/avg/max) = 3.327 | 3.327 | 3.327 Mbytes
Step Temp c_vacf[4] v_vacf 
       0    1.0348886    2.0691304            0 
    5000      1.01618  0.010970342    0.3062452 
   10000    1.0210865 0.0018251732    0.3939561 
   15000    1.0201407 -0.0051204578   0.50191967 
   20000    1.0169872  0.032935727   0.54134779 
   25000    1.0117798  -0.01580966     0.615112 
   30000    1.0284167 -0.0089673686   0.71447644 
   35000    1.0072394 -0.027346896   0.70401385 
   40000    1.0180797 -0.024551015   0.74660961 
   45000    1.0221593 -0.0059135592   0.75865906 
   50000    1.0150177  -0.04225538   0.87981449 
   55000    1.0190131 -0.039301263   0.91325887 
   60000    1.0153908  0.068561184   0.90266577 
Loop time of 53.6672 on 2176 procs for 60000 steps with 3200 atoms

Performance: 482976.707 tau/day, 1118.002 timesteps/s
98.7% CPU use with 2176 MPI tasks x 1 OpenMP threads

MPI task timing breakdown:
Section |  min time  |  avg time  |  max time  |%varavg| %total
---------------------------------------------------------------
Pair    | 0.16343    | 0.17315    | 0.25805    |   2.3 |  0.32
Neigh   | 0.064254   | 0.069496   | 0.10584    |   2.2 |  0.13
Comm    | 9.547      | 12.659     | 16.419     |  50.1 | 23.59
Output  | 0.010996   | 0.011284   | 0.012127   |   0.1 |  0.02
Modify  | 28.222     | 32.03      | 35.139     |  31.5 | 59.68
Other   |            | 8.724      |            |       | 16.26

Nlocal:    1.47059 ave 4 max 0 min
Histogram: 157 0 936 0 0 987 0 94 0 2
Nghost:    29.9081 ave 38 max 20 min
Histogram: 9 24 120 260 239 579 567 278 84 16
Neighs:    10.284 ave 33 max 0 min
Histogram: 171 403 492 438 388 205 50 19 8 2

Total # of neighbors = 22378
Ave neighs/atom = 6.99313
Neighbor list builds = 7770
Dangerous builds = 0
Total wall time: 0:00:57
endTime:Mon Dec  7 17:56:50 PST 2020


Starting job in antinedd policy..
startTime:Mon Dec  7 17:56:50 PST 2020

LAMMPS (20 Apr 2018)
OMP_NUM_THREADS environment is not set. Defaulting to 1 thread. (../comm.cpp:90)
  using 1 OpenMP thread(s) per MPI task
Lattice spacing in x,y,z = 1.82574 1.82574 1.82574
Created orthogonal box = (0 0 -0.182574) to (73.0297 73.0297 0.182574)
  64 by 34 by 1 MPI processor grid
Created 3200 atoms
  Time spent = 0.00623679 secs
Neighbor list info ...
  update every 1 steps, delay 0 steps, check yes
  max neighbors/atom: 2000, page size: 100000
  master list distance cutoff = 2.8
  ghost atom cutoff = 2.8
  binsize = 1.4, bins = 53 53 1
  1 neighbor lists, perpetual/occasional/extra = 1 0 0
  (1) pair lj/cut, perpetual
      attributes: half, newton on
      pair build: half/bin/atomonly/newton
      stencil: half/bin/2d/newton
      bin: standard
Setting up Verlet run ...
  Unit style    : lj
  Current step  : 0
  Time step     : 0.005
Per MPI rank memory allocation (min/avg/max) = 2.702 | 2.797 | 2.952 Mbytes
Step Temp E_pair E_mol TotEng Press 
       0            1     -1.56492            0   -0.5652325   -1.5346995 
    1000    1.0063515   -1.5732592            0  -0.56722209    1.0061204 
    2000   0.95792094   -1.5781469            0  -0.62052531   0.96571772 
    3000   0.98401573    -1.588743            0  -0.60503472   0.97094222 
    4000   0.99740124   -1.5757024            0  -0.57861287   0.99998732 
    5000    1.0348886   -1.6022633            0  -0.56769811   0.97795086 
Loop time of 2.90671 on 2176 procs for 5000 steps with 3200 atoms

Performance: 743106.942 tau/day, 1720.155 timesteps/s
98.1% CPU use with 2176 MPI tasks x 1 OpenMP threads

MPI task timing breakdown:
Section |  min time  |  avg time  |  max time  |%varavg| %total
---------------------------------------------------------------
Pair    | 0.011945   | 0.01438    | 0.020098   |   0.7 |  0.49
Neigh   | 0.0046675  | 0.0053855  | 0.0083935  |   0.6 |  0.19
Comm    | 0.78399    | 1.0113     | 1.2569     |   9.7 | 34.79
Output  | 0.004189   | 0.0046665  | 0.0049253  |   0.2 |  0.16
Modify  | 0.030675   | 0.033096   | 0.044236   |   0.7 |  1.14
Other   |            | 1.838      |            |       | 63.23

Nlocal:    1.47059 ave 4 max 0 min
Histogram: 156 0 945 0 0 972 0 101 0 2
Nghost:    29.7891 ave 39 max 22 min
Histogram: 19 78 286 246 701 556 148 126 15 1
Neighs:    10.324 ave 33 max 0 min
Histogram: 178 392 523 392 399 200 61 27 1 3

Total # of neighbors = 22465
Ave neighs/atom = 7.02031
Neighbor list builds = 601
Dangerous builds = 0
Setting up Verlet run ...
  Unit style    : lj
  Current step  : 0
  Time step     : 0.005
Per MPI rank memory allocation (min/avg/max) = 3.327 | 3.327 | 3.327 Mbytes
Step Temp c_vacf[4] v_vacf 
       0    1.0348886    2.0691304            0 
    5000      1.01618  0.010970342    0.3062452 
   10000    1.0210865 0.0018251732    0.3939561 
   15000    1.0201407 -0.0051204578   0.50191967 
   20000    1.0169872  0.032935727   0.54134779 
   25000    1.0117798  -0.01580966     0.615112 
   30000    1.0284167 -0.0089673686   0.71447644 
   35000    1.0072394 -0.027346896   0.70401385 
   40000    1.0180797 -0.024551015   0.74660961 
   45000    1.0221593 -0.0059135592   0.75865906 
   50000    1.0150177  -0.04225538   0.87981449 
   55000    1.0190131 -0.039301263   0.91325887 
   60000    1.0153908  0.068561184   0.90266577 
Loop time of 57.8874 on 2176 procs for 60000 steps with 3200 atoms

Performance: 447766.126 tau/day, 1036.496 timesteps/s
98.8% CPU use with 2176 MPI tasks x 1 OpenMP threads

MPI task timing breakdown:
Section |  min time  |  avg time  |  max time  |%varavg| %total
---------------------------------------------------------------
Pair    | 0.16418    | 0.17333    | 0.25796    |   2.3 |  0.30
Neigh   | 0.064131   | 0.069835   | 0.10908    |   2.2 |  0.12
Comm    | 10.695     | 13.705     | 17.588     |  35.2 | 23.68
Output  | 0.011677   | 0.011995   | 0.012812   |   0.1 |  0.02
Modify  | 30.627     | 34.522     | 37.484     |  22.1 | 59.64
Other   |            | 9.405      |            |       | 16.25

Nlocal:    1.47059 ave 4 max 0 min
Histogram: 157 0 936 0 0 987 0 94 0 2
Nghost:    29.9081 ave 38 max 20 min
Histogram: 9 24 120 260 239 579 567 278 84 16
Neighs:    10.284 ave 33 max 0 min
Histogram: 171 403 492 438 388 205 50 19 8 2

Total # of neighbors = 22378
Ave neighs/atom = 6.99313
Neighbor list builds = 7770
Dangerous builds = 0
Total wall time: 0:01:00
endTime:Mon Dec  7 17:58:13 PST 2020


Starting job in fewerNoCong policy..
startTime:Mon Dec  7 17:58:19 PST 2020

LAMMPS (20 Apr 2018)
OMP_NUM_THREADS environment is not set. Defaulting to 1 thread. (../comm.cpp:90)
  using 1 OpenMP thread(s) per MPI task
Lattice spacing in x,y,z = 1.82574 1.82574 1.82574
Created orthogonal box = (0 0 -0.182574) to (73.0297 73.0297 0.182574)
  64 by 34 by 1 MPI processor grid
Created 3200 atoms
  Time spent = 0.00457788 secs
Neighbor list info ...
  update every 1 steps, delay 0 steps, check yes
  max neighbors/atom: 2000, page size: 100000
  master list distance cutoff = 2.8
  ghost atom cutoff = 2.8
  binsize = 1.4, bins = 53 53 1
  1 neighbor lists, perpetual/occasional/extra = 1 0 0
  (1) pair lj/cut, perpetual
      attributes: half, newton on
      pair build: half/bin/atomonly/newton
      stencil: half/bin/2d/newton
      bin: standard
Setting up Verlet run ...
  Unit style    : lj
  Current step  : 0
  Time step     : 0.005
Per MPI rank memory allocation (min/avg/max) = 2.702 | 2.797 | 2.952 Mbytes
Step Temp E_pair E_mol TotEng Press 
       0            1     -1.56492            0   -0.5652325   -1.5346995 
    1000    1.0063515   -1.5732592            0  -0.56722209    1.0061204 
    2000   0.95792094   -1.5781469            0  -0.62052531   0.96571772 
    3000   0.98401573    -1.588743            0  -0.60503472   0.97094222 
    4000   0.99740124   -1.5757024            0  -0.57861287   0.99998732 
    5000    1.0348886   -1.6022633            0  -0.56769811   0.97795086 
Loop time of 2.52356 on 2176 procs for 5000 steps with 3200 atoms

Performance: 855932.769 tau/day, 1981.326 timesteps/s
97.9% CPU use with 2176 MPI tasks x 1 OpenMP threads

MPI task timing breakdown:
Section |  min time  |  avg time  |  max time  |%varavg| %total
---------------------------------------------------------------
Pair    | 0.011729   | 0.014363   | 0.018948   |   0.6 |  0.57
Neigh   | 0.0046647  | 0.0053477  | 0.0079596  |   0.6 |  0.21
Comm    | 0.72564    | 0.90874    | 1.2226     |  12.2 | 36.01
Output  | 0.003756   | 0.0042488  | 0.004528   |   0.2 |  0.17
Modify  | 0.030564   | 0.033077   | 0.043007   |   0.7 |  1.31
Other   |            | 1.558      |            |       | 61.73

Nlocal:    1.47059 ave 4 max 0 min
Histogram: 156 0 945 0 0 972 0 101 0 2
Nghost:    29.7891 ave 39 max 22 min
Histogram: 19 78 286 246 701 556 148 126 15 1
Neighs:    10.324 ave 33 max 0 min
Histogram: 178 392 523 392 399 200 61 27 1 3

Total # of neighbors = 22465
Ave neighs/atom = 7.02031
Neighbor list builds = 601
Dangerous builds = 0
Setting up Verlet run ...
  Unit style    : lj
  Current step  : 0
  Time step     : 0.005
Per MPI rank memory allocation (min/avg/max) = 3.327 | 3.327 | 3.327 Mbytes
Step Temp c_vacf[4] v_vacf 
       0    1.0348886    2.0691304            0 
    5000      1.01618  0.010970342    0.3062452 
   10000    1.0210865 0.0018251732    0.3939561 
   15000    1.0201407 -0.0051204578   0.50191967 
   20000    1.0169872  0.032935727   0.54134779 
   25000    1.0117798  -0.01580966     0.615112 
   30000    1.0284167 -0.0089673686   0.71447644 
   35000    1.0072394 -0.027346896   0.70401385 
   40000    1.0180797 -0.024551015   0.74660961 
   45000    1.0221593 -0.0059135592   0.75865906 
   50000    1.0150177  -0.04225538   0.87981449 
   55000    1.0190131 -0.039301263   0.91325887 
   60000    1.0153908  0.068561184   0.90266577 
Loop time of 42.8385 on 2176 procs for 60000 steps with 3200 atoms

Performance: 605062.553 tau/day, 1400.608 timesteps/s
98.6% CPU use with 2176 MPI tasks x 1 OpenMP threads

MPI task timing breakdown:
Section |  min time  |  avg time  |  max time  |%varavg| %total
---------------------------------------------------------------
Pair    | 0.16274    | 0.17283    | 0.25473    |   1.9 |  0.40
Neigh   | 0.064463   | 0.069188   | 0.10513    |   2.2 |  0.16
Comm    | 8.4484     | 10.518     | 13.656     |  38.6 | 24.55
Output  | 0.01273    | 0.013748   | 0.014986   |   0.3 |  0.03
Modify  | 21.093     | 24.218     | 26.29      |  25.5 | 56.53
Other   |            | 7.847      |            |       | 18.32

Nlocal:    1.47059 ave 4 max 0 min
Histogram: 157 0 936 0 0 987 0 94 0 2
Nghost:    29.9081 ave 38 max 20 min
Histogram: 9 24 120 260 239 579 567 278 84 16
Neighs:    10.284 ave 33 max 0 min
Histogram: 171 403 492 438 388 205 50 19 8 2

Total # of neighbors = 22378
Ave neighs/atom = 6.99313
Neighbor list builds = 7770
Dangerous builds = 0
Total wall time: 0:00:45
endTime:Mon Dec  7 17:59:16 PST 2020


====================
iteration 1
Starting job in nedd policy..
startTime:Mon Dec  7 18:01:50 PST 2020

LAMMPS (20 Apr 2018)
OMP_NUM_THREADS environment is not set. Defaulting to 1 thread. (../comm.cpp:90)
  using 1 OpenMP thread(s) per MPI task
Lattice spacing in x,y,z = 1.82574 1.82574 1.82574
Created orthogonal box = (0 0 -0.182574) to (73.0297 73.0297 0.182574)
  64 by 34 by 1 MPI processor grid
Created 3200 atoms
  Time spent = 0.00939512 secs
Neighbor list info ...
  update every 1 steps, delay 0 steps, check yes
  max neighbors/atom: 2000, page size: 100000
  master list distance cutoff = 2.8
  ghost atom cutoff = 2.8
  binsize = 1.4, bins = 53 53 1
  1 neighbor lists, perpetual/occasional/extra = 1 0 0
  (1) pair lj/cut, perpetual
      attributes: half, newton on
      pair build: half/bin/atomonly/newton
      stencil: half/bin/2d/newton
      bin: standard
Setting up Verlet run ...
  Unit style    : lj
  Current step  : 0
  Time step     : 0.005
Per MPI rank memory allocation (min/avg/max) = 2.702 | 2.797 | 2.952 Mbytes
Step Temp E_pair E_mol TotEng Press 
       0            1     -1.56492            0   -0.5652325   -1.5346995 
    1000    1.0063515   -1.5732592            0  -0.56722209    1.0061204 
    2000   0.95792094   -1.5781469            0  -0.62052531   0.96571772 
    3000   0.98401573    -1.588743            0  -0.60503472   0.97094222 
    4000   0.99740124   -1.5757024            0  -0.57861287   0.99998732 
    5000    1.0348886   -1.6022633            0  -0.56769811   0.97795086 
Loop time of 4.08207 on 2176 procs for 5000 steps with 3200 atoms

Performance: 529143.691 tau/day, 1224.870 timesteps/s
98.6% CPU use with 2176 MPI tasks x 1 OpenMP threads

MPI task timing breakdown:
Section |  min time  |  avg time  |  max time  |%varavg| %total
---------------------------------------------------------------
Pair    | 0.011889   | 0.014419   | 0.021598   |   0.8 |  0.35
Neigh   | 0.0047183  | 0.0054065  | 0.0083387  |   0.6 |  0.13
Comm    | 0.92331    | 1.3191     | 2.1026     |  27.0 | 32.31
Output  | 0.003931   | 0.005734   | 0.0064061  |   0.8 |  0.14
Modify  | 0.030733   | 0.033237   | 0.046028   |   0.9 |  0.81
Other   |            | 2.704      |            |       | 66.25

Nlocal:    1.47059 ave 4 max 0 min
Histogram: 156 0 945 0 0 972 0 101 0 2
Nghost:    29.7891 ave 39 max 22 min
Histogram: 19 78 286 246 701 556 148 126 15 1
Neighs:    10.324 ave 33 max 0 min
Histogram: 178 392 523 392 399 200 61 27 1 3

Total # of neighbors = 22465
Ave neighs/atom = 7.02031
Neighbor list builds = 601
Dangerous builds = 0
Setting up Verlet run ...
  Unit style    : lj
  Current step  : 0
  Time step     : 0.005
Per MPI rank memory allocation (min/avg/max) = 3.327 | 3.327 | 3.327 Mbytes
Step Temp c_vacf[4] v_vacf 
       0    1.0348886    2.0691304            0 
    5000      1.01618  0.010970342    0.3062452 
   10000    1.0210865 0.0018251732    0.3939561 
   15000    1.0201407 -0.0051204578   0.50191967 
   20000    1.0169872  0.032935727   0.54134779 
   25000    1.0117798  -0.01580966     0.615112 
   30000    1.0284167 -0.0089673686   0.71447644 
   35000    1.0072394 -0.027346896   0.70401385 
   40000    1.0180797 -0.024551015   0.74660961 
   45000    1.0221593 -0.0059135592   0.75865906 
   50000    1.0150177  -0.04225538   0.87981449 
   55000    1.0190131 -0.039301263   0.91325887 
   60000    1.0153908  0.068561184   0.90266577 
Loop time of 65.6574 on 2176 procs for 60000 steps with 3200 atoms

Performance: 394776.673 tau/day, 913.835 timesteps/s
99.0% CPU use with 2176 MPI tasks x 1 OpenMP threads

MPI task timing breakdown:
Section |  min time  |  avg time  |  max time  |%varavg| %total
---------------------------------------------------------------
Pair    | 0.1634     | 0.17356    | 0.26749    |   2.7 |  0.26
Neigh   | 0.064074   | 0.069859   | 0.10717    |   2.3 |  0.11
Comm    | 10.009     | 14.019     | 21.992     |  79.2 | 21.35
Output  | 0.014615   | 0.015966   | 0.017285   |   0.5 |  0.02
Modify  | 30.852     | 38.769     | 42.877     |  48.2 | 59.05
Other   |            | 12.61      |            |       | 19.21

Nlocal:    1.47059 ave 4 max 0 min
Histogram: 157 0 936 0 0 987 0 94 0 2
Nghost:    29.9081 ave 38 max 20 min
Histogram: 9 24 120 260 239 579 567 278 84 16
Neighs:    10.284 ave 33 max 0 min
Histogram: 171 403 492 438 388 205 50 19 8 2

Total # of neighbors = 22378
Ave neighs/atom = 6.99313
Neighbor list builds = 7770
Dangerous builds = 0
Total wall time: 0:01:09
endTime:Mon Dec  7 18:03:09 PST 2020


Starting job in lowerRouterStall policy..
startTime:Mon Dec  7 18:03:09 PST 2020

LAMMPS (20 Apr 2018)
OMP_NUM_THREADS environment is not set. Defaulting to 1 thread. (../comm.cpp:90)
  using 1 OpenMP thread(s) per MPI task
Lattice spacing in x,y,z = 1.82574 1.82574 1.82574
Created orthogonal box = (0 0 -0.182574) to (73.0297 73.0297 0.182574)
  64 by 34 by 1 MPI processor grid
Created 3200 atoms
  Time spent = 0.00472713 secs
Neighbor list info ...
  update every 1 steps, delay 0 steps, check yes
  max neighbors/atom: 2000, page size: 100000
  master list distance cutoff = 2.8
  ghost atom cutoff = 2.8
  binsize = 1.4, bins = 53 53 1
  1 neighbor lists, perpetual/occasional/extra = 1 0 0
  (1) pair lj/cut, perpetual
      attributes: half, newton on
      pair build: half/bin/atomonly/newton
      stencil: half/bin/2d/newton
      bin: standard
Setting up Verlet run ...
  Unit style    : lj
  Current step  : 0
  Time step     : 0.005
Per MPI rank memory allocation (min/avg/max) = 2.702 | 2.797 | 2.952 Mbytes
Step Temp E_pair E_mol TotEng Press 
       0            1     -1.56492            0   -0.5652325   -1.5346995 
    1000    1.0063515   -1.5732592            0  -0.56722209    1.0061204 
    2000   0.95792094   -1.5781469            0  -0.62052531   0.96571772 
    3000   0.98401573    -1.588743            0  -0.60503472   0.97094222 
    4000   0.99740124   -1.5757024            0  -0.57861287   0.99998732 
    5000    1.0348886   -1.6022633            0  -0.56769811   0.97795086 
Loop time of 3.67192 on 2176 procs for 5000 steps with 3200 atoms

Performance: 588248.344 tau/day, 1361.686 timesteps/s
98.5% CPU use with 2176 MPI tasks x 1 OpenMP threads

MPI task timing breakdown:
Section |  min time  |  avg time  |  max time  |%varavg| %total
---------------------------------------------------------------
Pair    | 0.011923   | 0.014421   | 0.02105    |   0.7 |  0.39
Neigh   | 0.0046921  | 0.0054094  | 0.0083811  |   0.6 |  0.15
Comm    | 0.654      | 1.0701     | 1.9715     |  27.9 | 29.14
Output  | 0.0058382  | 0.0075523  | 0.0087163  |   0.7 |  0.21
Modify  | 0.030591   | 0.033184   | 0.044497   |   0.9 |  0.90
Other   |            | 2.541      |            |       | 69.21

Nlocal:    1.47059 ave 4 max 0 min
Histogram: 156 0 945 0 0 972 0 101 0 2
Nghost:    29.7891 ave 39 max 22 min
Histogram: 19 78 286 246 701 556 148 126 15 1
Neighs:    10.324 ave 33 max 0 min
Histogram: 178 392 523 392 399 200 61 27 1 3

Total # of neighbors = 22465
Ave neighs/atom = 7.02031
Neighbor list builds = 601
Dangerous builds = 0
Setting up Verlet run ...
  Unit style    : lj
  Current step  : 0
  Time step     : 0.005
Per MPI rank memory allocation (min/avg/max) = 3.327 | 3.327 | 3.327 Mbytes
Step Temp c_vacf[4] v_vacf 
       0    1.0348886    2.0691304            0 
    5000      1.01618  0.010970342    0.3062452 
   10000    1.0210865 0.0018251732    0.3939561 
   15000    1.0201407 -0.0051204578   0.50191967 
   20000    1.0169872  0.032935727   0.54134779 
   25000    1.0117798  -0.01580966     0.615112 
   30000    1.0284167 -0.0089673686   0.71447644 
   35000    1.0072394 -0.027346896   0.70401385 
   40000    1.0180797 -0.024551015   0.74660961 
   45000    1.0221593 -0.0059135592   0.75865906 
   50000    1.0150177  -0.04225538   0.87981449 
   55000    1.0190131 -0.039301263   0.91325887 
   60000    1.0153908  0.068561184   0.90266577 
Loop time of 65.0533 on 2176 procs for 60000 steps with 3200 atoms

Performance: 398442.272 tau/day, 922.320 timesteps/s
99.0% CPU use with 2176 MPI tasks x 1 OpenMP threads

MPI task timing breakdown:
Section |  min time  |  avg time  |  max time  |%varavg| %total
---------------------------------------------------------------
Pair    | 0.16456    | 0.17354    | 0.25348    |   2.5 |  0.27
Neigh   | 0.06432    | 0.06991    | 0.10564    |   2.3 |  0.11
Comm    | 8.8851     | 13.787     | 21.961     |  73.4 | 21.19
Output  | 0.011467   | 0.011839   | 0.012697   |   0.1 |  0.02
Modify  | 32.182     | 40.366     | 45.33      |  43.0 | 62.05
Other   |            | 10.65      |            |       | 16.36

Nlocal:    1.47059 ave 4 max 0 min
Histogram: 157 0 936 0 0 987 0 94 0 2
Nghost:    29.9081 ave 38 max 20 min
Histogram: 9 24 120 260 239 579 567 278 84 16
Neighs:    10.284 ave 33 max 0 min
Histogram: 171 403 492 438 388 205 50 19 8 2

Total # of neighbors = 22378
Ave neighs/atom = 6.99313
Neighbor list builds = 7770
Dangerous builds = 0
Total wall time: 0:01:09
endTime:Mon Dec  7 18:04:52 PST 2020


Starting job in fewerSwitch policy..
startTime:Mon Dec  7 18:04:52 PST 2020

LAMMPS (20 Apr 2018)
OMP_NUM_THREADS environment is not set. Defaulting to 1 thread. (../comm.cpp:90)
  using 1 OpenMP thread(s) per MPI task
Lattice spacing in x,y,z = 1.82574 1.82574 1.82574
Created orthogonal box = (0 0 -0.182574) to (73.0297 73.0297 0.182574)
  64 by 34 by 1 MPI processor grid
Created 3200 atoms
  Time spent = 0.00486088 secs
Neighbor list info ...
  update every 1 steps, delay 0 steps, check yes
  max neighbors/atom: 2000, page size: 100000
  master list distance cutoff = 2.8
  ghost atom cutoff = 2.8
  binsize = 1.4, bins = 53 53 1
  1 neighbor lists, perpetual/occasional/extra = 1 0 0
  (1) pair lj/cut, perpetual
      attributes: half, newton on
      pair build: half/bin/atomonly/newton
      stencil: half/bin/2d/newton
      bin: standard
Setting up Verlet run ...
  Unit style    : lj
  Current step  : 0
  Time step     : 0.005
Per MPI rank memory allocation (min/avg/max) = 2.702 | 2.797 | 2.952 Mbytes
Step Temp E_pair E_mol TotEng Press 
       0            1     -1.56492            0   -0.5652325   -1.5346995 
    1000    1.0063515   -1.5732592            0  -0.56722209    1.0061204 
    2000   0.95792094   -1.5781469            0  -0.62052531   0.96571772 
    3000   0.98401573    -1.588743            0  -0.60503472   0.97094222 
    4000   0.99740124   -1.5757024            0  -0.57861287   0.99998732 
    5000    1.0348886   -1.6022633            0  -0.56769811   0.97795086 
Loop time of 2.45863 on 2176 procs for 5000 steps with 3200 atoms

Performance: 878536.504 tau/day, 2033.649 timesteps/s
97.8% CPU use with 2176 MPI tasks x 1 OpenMP threads

MPI task timing breakdown:
Section |  min time  |  avg time  |  max time  |%varavg| %total
---------------------------------------------------------------
Pair    | 0.01197    | 0.014495   | 0.019913   |   0.6 |  0.59
Neigh   | 0.0046885  | 0.0053675  | 0.0080426  |   0.6 |  0.22
Comm    | 0.68951    | 0.87441    | 1.2669     |  15.3 | 35.56
Output  | 0.0031691  | 0.0034778  | 0.0037026  |   0.2 |  0.14
Modify  | 0.030964   | 0.033444   | 0.043615   |   0.7 |  1.36
Other   |            | 1.527      |            |       | 62.13

Nlocal:    1.47059 ave 4 max 0 min
Histogram: 156 0 945 0 0 972 0 101 0 2
Nghost:    29.7891 ave 39 max 22 min
Histogram: 19 78 286 246 701 556 148 126 15 1
Neighs:    10.324 ave 33 max 0 min
Histogram: 178 392 523 392 399 200 61 27 1 3

Total # of neighbors = 22465
Ave neighs/atom = 7.02031
Neighbor list builds = 601
Dangerous builds = 0
Setting up Verlet run ...
  Unit style    : lj
  Current step  : 0
  Time step     : 0.005
Per MPI rank memory allocation (min/avg/max) = 3.327 | 3.327 | 3.327 Mbytes
Step Temp c_vacf[4] v_vacf 
       0    1.0348886    2.0691304            0 
    5000      1.01618  0.010970342    0.3062452 
   10000    1.0210865 0.0018251732    0.3939561 
   15000    1.0201407 -0.0051204578   0.50191967 
   20000    1.0169872  0.032935727   0.54134779 
   25000    1.0117798  -0.01580966     0.615112 
   30000    1.0284167 -0.0089673686   0.71447644 
   35000    1.0072394 -0.027346896   0.70401385 
   40000    1.0180797 -0.024551015   0.74660961 
   45000    1.0221593 -0.0059135592   0.75865906 
   50000    1.0150177  -0.04225538   0.87981449 
   55000    1.0190131 -0.039301263   0.91325887 
   60000    1.0153908  0.068561184   0.90266577 
Loop time of 41.5941 on 2176 procs for 60000 steps with 3200 atoms

Performance: 623164.646 tau/day, 1442.511 timesteps/s
98.4% CPU use with 2176 MPI tasks x 1 OpenMP threads

MPI task timing breakdown:
Section |  min time  |  avg time  |  max time  |%varavg| %total
---------------------------------------------------------------
Pair    | 0.16396    | 0.17422    | 0.24814    |   1.9 |  0.42
Neigh   | 0.064658   | 0.069303   | 0.10306    |   2.1 |  0.17
Comm    | 8.0451     | 10.22      | 15.047     |  60.1 | 24.57
Output  | 0.01126    | 0.011576   | 0.012316   |   0.1 |  0.03
Modify  | 19.171     | 23.995     | 26.167     |  39.2 | 57.69
Other   |            | 7.124      |            |       | 17.13

Nlocal:    1.47059 ave 4 max 0 min
Histogram: 157 0 936 0 0 987 0 94 0 2
Nghost:    29.9081 ave 38 max 20 min
Histogram: 9 24 120 260 239 579 567 278 84 16
Neighs:    10.284 ave 33 max 0 min
Histogram: 171 403 492 438 388 205 50 19 8 2

Total # of neighbors = 22378
Ave neighs/atom = 6.99313
Neighbor list builds = 7770
Dangerous builds = 0
Total wall time: 0:00:46
endTime:Mon Dec  7 18:05:56 PST 2020


Starting job in random policy..
startTime:Mon Dec  7 18:05:56 PST 2020

LAMMPS (20 Apr 2018)
OMP_NUM_THREADS environment is not set. Defaulting to 1 thread. (../comm.cpp:90)
  using 1 OpenMP thread(s) per MPI task
Lattice spacing in x,y,z = 1.82574 1.82574 1.82574
Created orthogonal box = (0 0 -0.182574) to (73.0297 73.0297 0.182574)
  64 by 34 by 1 MPI processor grid
Created 3200 atoms
  Time spent = 0.00596404 secs
Neighbor list info ...
  update every 1 steps, delay 0 steps, check yes
  max neighbors/atom: 2000, page size: 100000
  master list distance cutoff = 2.8
  ghost atom cutoff = 2.8
  binsize = 1.4, bins = 53 53 1
  1 neighbor lists, perpetual/occasional/extra = 1 0 0
  (1) pair lj/cut, perpetual
      attributes: half, newton on
      pair build: half/bin/atomonly/newton
      stencil: half/bin/2d/newton
      bin: standard
Setting up Verlet run ...
  Unit style    : lj
  Current step  : 0
  Time step     : 0.005
Per MPI rank memory allocation (min/avg/max) = 2.702 | 2.797 | 2.952 Mbytes
Step Temp E_pair E_mol TotEng Press 
       0            1     -1.56492            0   -0.5652325   -1.5346995 
    1000    1.0063515   -1.5732592            0  -0.56722209    1.0061204 
    2000   0.95792094   -1.5781469            0  -0.62052531   0.96571772 
    3000   0.98401573    -1.588743            0  -0.60503472   0.97094222 
    4000   0.99740124   -1.5757024            0  -0.57861287   0.99998732 
    5000    1.0348886   -1.6022633            0  -0.56769811   0.97795086 
Loop time of 3.41356 on 2176 procs for 5000 steps with 3200 atoms

Performance: 632769.955 tau/day, 1464.745 timesteps/s
98.3% CPU use with 2176 MPI tasks x 1 OpenMP threads

MPI task timing breakdown:
Section |  min time  |  avg time  |  max time  |%varavg| %total
---------------------------------------------------------------
Pair    | 0.012063   | 0.014535   | 0.020018   |   0.7 |  0.43
Neigh   | 0.0046561  | 0.0054022  | 0.0082033  |   0.6 |  0.16
Comm    | 0.88025    | 1.1842     | 1.4372     |  10.0 | 34.69
Output  | 0.004674   | 0.0052675  | 0.0057316  |   0.3 |  0.15
Modify  | 0.030848   | 0.033535   | 0.044738   |   0.8 |  0.98
Other   |            | 2.171      |            |       | 63.59

Nlocal:    1.47059 ave 4 max 0 min
Histogram: 156 0 945 0 0 972 0 101 0 2
Nghost:    29.7891 ave 39 max 22 min
Histogram: 19 78 286 246 701 556 148 126 15 1
Neighs:    10.324 ave 33 max 0 min
Histogram: 178 392 523 392 399 200 61 27 1 3

Total # of neighbors = 22465
Ave neighs/atom = 7.02031
Neighbor list builds = 601
Dangerous builds = 0
Setting up Verlet run ...
  Unit style    : lj
  Current step  : 0
  Time step     : 0.005
Per MPI rank memory allocation (min/avg/max) = 3.327 | 3.327 | 3.327 Mbytes
Step Temp c_vacf[4] v_vacf 
       0    1.0348886    2.0691304            0 
    5000      1.01618  0.010970342    0.3062452 
   10000    1.0210865 0.0018251732    0.3939561 
   15000    1.0201407 -0.0051204578   0.50191967 
   20000    1.0169872  0.032935727   0.54134779 
   25000    1.0117798  -0.01580966     0.615112 
   30000    1.0284167 -0.0089673686   0.71447644 
   35000    1.0072394 -0.027346896   0.70401385 
   40000    1.0180797 -0.024551015   0.74660961 
   45000    1.0221593 -0.0059135592   0.75865906 
   50000    1.0150177  -0.04225538   0.87981449 
   55000    1.0190131 -0.039301263   0.91325887 
   60000    1.0153908  0.068561184   0.90266577 
Loop time of 67.528 on 2176 procs for 60000 steps with 3200 atoms

Performance: 383841.016 tau/day, 888.521 timesteps/s
98.9% CPU use with 2176 MPI tasks x 1 OpenMP threads

MPI task timing breakdown:
Section |  min time  |  avg time  |  max time  |%varavg| %total
---------------------------------------------------------------
Pair    | 0.16614    | 0.17549    | 0.26594    |   2.9 |  0.26
Neigh   | 0.064954   | 0.070058   | 0.10724    |   2.3 |  0.10
Comm    | 11.702     | 15.764     | 18.895     |  36.7 | 23.34
Output  | 0.013364   | 0.013734   | 0.014556   |   0.1 |  0.02
Modify  | 36.672     | 39.744     | 43.769     |  23.2 | 58.86
Other   |            | 11.76      |            |       | 17.42

Nlocal:    1.47059 ave 4 max 0 min
Histogram: 157 0 936 0 0 987 0 94 0 2
Nghost:    29.9081 ave 38 max 20 min
Histogram: 9 24 120 260 239 579 567 278 84 16
Neighs:    10.284 ave 33 max 0 min
Histogram: 171 403 492 438 388 205 50 19 8 2

Total # of neighbors = 22378
Ave neighs/atom = 6.99313
Neighbor list builds = 7770
Dangerous builds = 0
Total wall time: 0:01:11
endTime:Mon Dec  7 18:07:20 PST 2020


Starting job in antinedd policy..
startTime:Mon Dec  7 18:07:20 PST 2020

LAMMPS (20 Apr 2018)
OMP_NUM_THREADS environment is not set. Defaulting to 1 thread. (../comm.cpp:90)
  using 1 OpenMP thread(s) per MPI task
Lattice spacing in x,y,z = 1.82574 1.82574 1.82574
Created orthogonal box = (0 0 -0.182574) to (73.0297 73.0297 0.182574)
  64 by 34 by 1 MPI processor grid
Created 3200 atoms
  Time spent = 0.00827718 secs
Neighbor list info ...
  update every 1 steps, delay 0 steps, check yes
  max neighbors/atom: 2000, page size: 100000
  master list distance cutoff = 2.8
  ghost atom cutoff = 2.8
  binsize = 1.4, bins = 53 53 1
  1 neighbor lists, perpetual/occasional/extra = 1 0 0
  (1) pair lj/cut, perpetual
      attributes: half, newton on
      pair build: half/bin/atomonly/newton
      stencil: half/bin/2d/newton
      bin: standard
Setting up Verlet run ...
  Unit style    : lj
  Current step  : 0
  Time step     : 0.005
Per MPI rank memory allocation (min/avg/max) = 2.702 | 2.797 | 2.952 Mbytes
Step Temp E_pair E_mol TotEng Press 
       0            1     -1.56492            0   -0.5652325   -1.5346995 
    1000    1.0063515   -1.5732592            0  -0.56722209    1.0061204 
    2000   0.95792094   -1.5781469            0  -0.62052531   0.96571772 
    3000   0.98401573    -1.588743            0  -0.60503472   0.97094222 
    4000   0.99740124   -1.5757024            0  -0.57861287   0.99998732 
    5000    1.0348886   -1.6022633            0  -0.56769811   0.97795086 
Loop time of 3.75629 on 2176 procs for 5000 steps with 3200 atoms

Performance: 575035.285 tau/day, 1331.100 timesteps/s
98.5% CPU use with 2176 MPI tasks x 1 OpenMP threads

MPI task timing breakdown:
Section |  min time  |  avg time  |  max time  |%varavg| %total
---------------------------------------------------------------
Pair    | 0.011921   | 0.014553   | 0.02172    |   0.7 |  0.39
Neigh   | 0.0047042  | 0.0053921  | 0.0085356  |   0.6 |  0.14
Comm    | 0.94676    | 1.2654     | 1.8934     |  19.7 | 33.69
Output  | 0.0054574  | 0.0066134  | 0.0084879  |   1.1 |  0.18
Modify  | 0.030976   | 0.033588   | 0.045849   |   0.9 |  0.89
Other   |            | 2.431      |            |       | 64.71

Nlocal:    1.47059 ave 4 max 0 min
Histogram: 156 0 945 0 0 972 0 101 0 2
Nghost:    29.7891 ave 39 max 22 min
Histogram: 19 78 286 246 701 556 148 126 15 1
Neighs:    10.324 ave 33 max 0 min
Histogram: 178 392 523 392 399 200 61 27 1 3

Total # of neighbors = 22465
Ave neighs/atom = 7.02031
Neighbor list builds = 601
Dangerous builds = 0
Setting up Verlet run ...
  Unit style    : lj
  Current step  : 0
  Time step     : 0.005
Per MPI rank memory allocation (min/avg/max) = 3.327 | 3.327 | 3.327 Mbytes
Step Temp c_vacf[4] v_vacf 
       0    1.0348886    2.0691304            0 
    5000      1.01618  0.010970342    0.3062452 
   10000    1.0210865 0.0018251732    0.3939561 
   15000    1.0201407 -0.0051204578   0.50191967 
   20000    1.0169872  0.032935727   0.54134779 
   25000    1.0117798  -0.01580966     0.615112 
   30000    1.0284167 -0.0089673686   0.71447644 
   35000    1.0072394 -0.027346896   0.70401385 
   40000    1.0180797 -0.024551015   0.74660961 
   45000    1.0221593 -0.0059135592   0.75865906 
   50000    1.0150177  -0.04225538   0.87981449 
   55000    1.0190131 -0.039301263   0.91325887 
   60000    1.0153908  0.068561184   0.90266577 
Loop time of 76.5345 on 2176 procs for 60000 steps with 3200 atoms

Performance: 338670.792 tau/day, 783.960 timesteps/s
99.0% CPU use with 2176 MPI tasks x 1 OpenMP threads

MPI task timing breakdown:
Section |  min time  |  avg time  |  max time  |%varavg| %total
---------------------------------------------------------------
Pair    | 0.16488    | 0.1755     | 0.28644    |   2.8 |  0.23
Neigh   | 0.06425    | 0.069828   | 0.1071     |   2.3 |  0.09
Comm    | 13.301     | 17.292     | 25.02      |  66.7 | 22.59
Output  | 0.014541   | 0.015051   | 0.01584    |   0.1 |  0.02
Modify  | 38.415     | 46.126     | 50.1       |  40.9 | 60.27
Other   |            | 12.86      |            |       | 16.80

Nlocal:    1.47059 ave 4 max 0 min
Histogram: 157 0 936 0 0 987 0 94 0 2
Nghost:    29.9081 ave 38 max 20 min
Histogram: 9 24 120 260 239 579 567 278 84 16
Neighs:    10.284 ave 33 max 0 min
Histogram: 171 403 492 438 388 205 50 19 8 2

Total # of neighbors = 22378
Ave neighs/atom = 6.99313
Neighbor list builds = 7770
Dangerous builds = 0
Total wall time: 0:01:20
endTime:Mon Dec  7 18:09:00 PST 2020


Starting job in fewerNoCong policy..
startTime:Mon Dec  7 18:09:06 PST 2020

LAMMPS (20 Apr 2018)
OMP_NUM_THREADS environment is not set. Defaulting to 1 thread. (../comm.cpp:90)
  using 1 OpenMP thread(s) per MPI task
Lattice spacing in x,y,z = 1.82574 1.82574 1.82574
Created orthogonal box = (0 0 -0.182574) to (73.0297 73.0297 0.182574)
  64 by 34 by 1 MPI processor grid
Created 3200 atoms
  Time spent = 0.00601816 secs
Neighbor list info ...
  update every 1 steps, delay 0 steps, check yes
  max neighbors/atom: 2000, page size: 100000
  master list distance cutoff = 2.8
  ghost atom cutoff = 2.8
  binsize = 1.4, bins = 53 53 1
  1 neighbor lists, perpetual/occasional/extra = 1 0 0
  (1) pair lj/cut, perpetual
      attributes: half, newton on
      pair build: half/bin/atomonly/newton
      stencil: half/bin/2d/newton
      bin: standard
Setting up Verlet run ...
  Unit style    : lj
  Current step  : 0
  Time step     : 0.005
Per MPI rank memory allocation (min/avg/max) = 2.702 | 2.797 | 2.952 Mbytes
Step Temp E_pair E_mol TotEng Press 
       0            1     -1.56492            0   -0.5652325   -1.5346995 
    1000    1.0063515   -1.5732592            0  -0.56722209    1.0061204 
    2000   0.95792094   -1.5781469            0  -0.62052531   0.96571772 
    3000   0.98401573    -1.588743            0  -0.60503472   0.97094222 
    4000   0.99740124   -1.5757024            0  -0.57861287   0.99998732 
    5000    1.0348886   -1.6022633            0  -0.56769811   0.97795086 
Loop time of 2.27415 on 2176 procs for 5000 steps with 3200 atoms

Performance: 949804.418 tau/day, 2198.621 timesteps/s
97.7% CPU use with 2176 MPI tasks x 1 OpenMP threads

MPI task timing breakdown:
Section |  min time  |  avg time  |  max time  |%varavg| %total
---------------------------------------------------------------
Pair    | 0.011989   | 0.014481   | 0.019742   |   0.6 |  0.64
Neigh   | 0.004643   | 0.0053477  | 0.008074   |   0.6 |  0.24
Comm    | 0.65943    | 0.82409    | 1.1898     |  15.9 | 36.24
Output  | 0.0037882  | 0.0046052  | 0.0048702  |   0.4 |  0.20
Modify  | 0.03036    | 0.033385   | 0.042256   |   0.6 |  1.47
Other   |            | 1.392      |            |       | 61.22

Nlocal:    1.47059 ave 4 max 0 min
Histogram: 156 0 945 0 0 972 0 101 0 2
Nghost:    29.7891 ave 39 max 22 min
Histogram: 19 78 286 246 701 556 148 126 15 1
Neighs:    10.324 ave 33 max 0 min
Histogram: 178 392 523 392 399 200 61 27 1 3

Total # of neighbors = 22465
Ave neighs/atom = 7.02031
Neighbor list builds = 601
Dangerous builds = 0
Setting up Verlet run ...
  Unit style    : lj
  Current step  : 0
  Time step     : 0.005
Per MPI rank memory allocation (min/avg/max) = 3.327 | 3.327 | 3.327 Mbytes
Step Temp c_vacf[4] v_vacf 
       0    1.0348886    2.0691304            0 
    5000      1.01618  0.010970342    0.3062452 
   10000    1.0210865 0.0018251732    0.3939561 
   15000    1.0201407 -0.0051204578   0.50191967 
   20000    1.0169872  0.032935727   0.54134779 
   25000    1.0117798  -0.01580966     0.615112 
   30000    1.0284167 -0.0089673686   0.71447644 
   35000    1.0072394 -0.027346896   0.70401385 
   40000    1.0180797 -0.024551015   0.74660961 
   45000    1.0221593 -0.0059135592   0.75865906 
   50000    1.0150177  -0.04225538   0.87981449 
   55000    1.0190131 -0.039301263   0.91325887 
   60000    1.0153908  0.068561184   0.90266577 
Loop time of 47.5398 on 2176 procs for 60000 steps with 3200 atoms

Performance: 545227.262 tau/day, 1262.100 timesteps/s
98.6% CPU use with 2176 MPI tasks x 1 OpenMP threads

MPI task timing breakdown:
Section |  min time  |  avg time  |  max time  |%varavg| %total
---------------------------------------------------------------
Pair    | 0.16576    | 0.17447    | 0.25487    |   2.1 |  0.37
Neigh   | 0.064487   | 0.069507   | 0.10545    |   2.2 |  0.15
Comm    | 8.7353     | 11.208     | 15.967     |  63.4 | 23.58
Output  | 0.010718   | 0.010981   | 0.011899   |   0.1 |  0.02
Modify  | 23.166     | 27.974     | 30.459     |  40.1 | 58.84
Other   |            | 8.104      |            |       | 17.05

Nlocal:    1.47059 ave 4 max 0 min
Histogram: 157 0 936 0 0 987 0 94 0 2
Nghost:    29.9081 ave 38 max 20 min
Histogram: 9 24 120 260 239 579 567 278 84 16
Neighs:    10.284 ave 33 max 0 min
Histogram: 171 403 492 438 388 205 50 19 8 2

Total # of neighbors = 22378
Ave neighs/atom = 6.99313
Neighbor list builds = 7770
Dangerous builds = 0
Total wall time: 0:00:50
endTime:Mon Dec  7 18:10:07 PST 2020


====================
iteration 2
Starting job in nedd policy..
startTime:Mon Dec  7 18:13:06 PST 2020

LAMMPS (20 Apr 2018)
OMP_NUM_THREADS environment is not set. Defaulting to 1 thread. (../comm.cpp:90)
  using 1 OpenMP thread(s) per MPI task
Lattice spacing in x,y,z = 1.82574 1.82574 1.82574
Created orthogonal box = (0 0 -0.182574) to (73.0297 73.0297 0.182574)
  64 by 34 by 1 MPI processor grid
Created 3200 atoms
  Time spent = 0.00857902 secs
Neighbor list info ...
  update every 1 steps, delay 0 steps, check yes
  max neighbors/atom: 2000, page size: 100000
  master list distance cutoff = 2.8
  ghost atom cutoff = 2.8
  binsize = 1.4, bins = 53 53 1
  1 neighbor lists, perpetual/occasional/extra = 1 0 0
  (1) pair lj/cut, perpetual
      attributes: half, newton on
      pair build: half/bin/atomonly/newton
      stencil: half/bin/2d/newton
      bin: standard
Setting up Verlet run ...
  Unit style    : lj
  Current step  : 0
  Time step     : 0.005
Per MPI rank memory allocation (min/avg/max) = 2.702 | 2.797 | 2.952 Mbytes
Step Temp E_pair E_mol TotEng Press 
       0            1     -1.56492            0   -0.5652325   -1.5346995 
    1000    1.0063515   -1.5732592            0  -0.56722209    1.0061204 
    2000   0.95792094   -1.5781469            0  -0.62052531   0.96571772 
    3000   0.98401573    -1.588743            0  -0.60503472   0.97094222 
    4000   0.99740124   -1.5757024            0  -0.57861287   0.99998732 
    5000    1.0348886   -1.6022633            0  -0.56769811   0.97795086 
Loop time of 3.08827 on 2176 procs for 5000 steps with 3200 atoms

Performance: 699420.766 tau/day, 1619.030 timesteps/s
98.2% CPU use with 2176 MPI tasks x 1 OpenMP threads

MPI task timing breakdown:
Section |  min time  |  avg time  |  max time  |%varavg| %total
---------------------------------------------------------------
Pair    | 0.011963   | 0.014522   | 0.020172   |   0.7 |  0.47
Neigh   | 0.0047007  | 0.0054038  | 0.008148   |   0.6 |  0.17
Comm    | 0.708      | 1.0136     | 1.4284     |  18.4 | 32.82
Output  | 0.0049679  | 0.0060597  | 0.0067332  |   0.6 |  0.20
Modify  | 0.030734   | 0.033512   | 0.044124   |   0.8 |  1.09
Other   |            | 2.015      |            |       | 65.25

Nlocal:    1.47059 ave 4 max 0 min
Histogram: 156 0 945 0 0 972 0 101 0 2
Nghost:    29.7891 ave 39 max 22 min
Histogram: 19 78 286 246 701 556 148 126 15 1
Neighs:    10.324 ave 33 max 0 min
Histogram: 178 392 523 392 399 200 61 27 1 3

Total # of neighbors = 22465
Ave neighs/atom = 7.02031
Neighbor list builds = 601
Dangerous builds = 0
Setting up Verlet run ...
  Unit style    : lj
  Current step  : 0
  Time step     : 0.005
Per MPI rank memory allocation (min/avg/max) = 3.327 | 3.327 | 3.327 Mbytes
Step Temp c_vacf[4] v_vacf 
       0    1.0348886    2.0691304            0 
    5000      1.01618  0.010970342    0.3062452 
   10000    1.0210865 0.0018251732    0.3939561 
   15000    1.0201407 -0.0051204578   0.50191967 
   20000    1.0169872  0.032935727   0.54134779 
   25000    1.0117798  -0.01580966     0.615112 
   30000    1.0284167 -0.0089673686   0.71447644 
   35000    1.0072394 -0.027346896   0.70401385 
   40000    1.0180797 -0.024551015   0.74660961 
   45000    1.0221593 -0.0059135592   0.75865906 
   50000    1.0150177  -0.04225538   0.87981449 
   55000    1.0190131 -0.039301263   0.91325887 
   60000    1.0153908  0.068561184   0.90266577 
Loop time of 66.7745 on 2176 procs for 60000 steps with 3200 atoms

Performance: 388172.051 tau/day, 898.546 timesteps/s
99.0% CPU use with 2176 MPI tasks x 1 OpenMP threads

MPI task timing breakdown:
Section |  min time  |  avg time  |  max time  |%varavg| %total
---------------------------------------------------------------
Pair    | 0.16547    | 0.17508    | 0.26026    |   2.5 |  0.26
Neigh   | 0.064623   | 0.070155   | 0.10605    |   2.2 |  0.11
Comm    | 9.4335     | 14.09      | 22.697     |  89.3 | 21.10
Output  | 0.011481   | 0.01235    | 0.013516   |   0.2 |  0.02
Modify  | 33.3       | 41.862     | 46.487     |  51.7 | 62.69
Other   |            | 10.57      |            |       | 15.82

Nlocal:    1.47059 ave 4 max 0 min
Histogram: 157 0 936 0 0 987 0 94 0 2
Nghost:    29.9081 ave 38 max 20 min
Histogram: 9 24 120 260 239 579 567 278 84 16
Neighs:    10.284 ave 33 max 0 min
Histogram: 171 403 492 438 388 205 50 19 8 2

Total # of neighbors = 22378
Ave neighs/atom = 6.99313
Neighbor list builds = 7770
Dangerous builds = 0
Total wall time: 0:01:10
endTime:Mon Dec  7 18:14:24 PST 2020


Starting job in lowerRouterStall policy..
startTime:Mon Dec  7 18:14:24 PST 2020

LAMMPS (20 Apr 2018)
OMP_NUM_THREADS environment is not set. Defaulting to 1 thread. (../comm.cpp:90)
  using 1 OpenMP thread(s) per MPI task
Lattice spacing in x,y,z = 1.82574 1.82574 1.82574
Created orthogonal box = (0 0 -0.182574) to (73.0297 73.0297 0.182574)
  64 by 34 by 1 MPI processor grid
Created 3200 atoms
  Time spent = 0.00435185 secs
Neighbor list info ...
  update every 1 steps, delay 0 steps, check yes
  max neighbors/atom: 2000, page size: 100000
  master list distance cutoff = 2.8
  ghost atom cutoff = 2.8
  binsize = 1.4, bins = 53 53 1
  1 neighbor lists, perpetual/occasional/extra = 1 0 0
  (1) pair lj/cut, perpetual
      attributes: half, newton on
      pair build: half/bin/atomonly/newton
      stencil: half/bin/2d/newton
      bin: standard
Setting up Verlet run ...
  Unit style    : lj
  Current step  : 0
  Time step     : 0.005
Per MPI rank memory allocation (min/avg/max) = 2.702 | 2.797 | 2.952 Mbytes
Step Temp E_pair E_mol TotEng Press 
       0            1     -1.56492            0   -0.5652325   -1.5346995 
    1000    1.0063515   -1.5732592            0  -0.56722209    1.0061204 
    2000   0.95792094   -1.5781469            0  -0.62052531   0.96571772 
    3000   0.98401573    -1.588743            0  -0.60503472   0.97094222 
    4000   0.99740124   -1.5757024            0  -0.57861287   0.99998732 
    5000    1.0348886   -1.6022633            0  -0.56769811   0.97795086 
Loop time of 2.92857 on 2176 procs for 5000 steps with 3200 atoms

Performance: 737560.987 tau/day, 1707.317 timesteps/s
98.2% CPU use with 2176 MPI tasks x 1 OpenMP threads

MPI task timing breakdown:
Section |  min time  |  avg time  |  max time  |%varavg| %total
---------------------------------------------------------------
Pair    | 0.012037   | 0.014512   | 0.020207   |   0.6 |  0.50
Neigh   | 0.0046332  | 0.0053771  | 0.0082603  |   0.6 |  0.18
Comm    | 0.66972    | 0.94232    | 1.3738     |  19.7 | 32.18
Output  | 0.003969   | 0.004536   | 0.0048056  |   0.2 |  0.15
Modify  | 0.030926   | 0.033472   | 0.044391   |   0.7 |  1.14
Other   |            | 1.928      |            |       | 65.85

Nlocal:    1.47059 ave 4 max 0 min
Histogram: 156 0 945 0 0 972 0 101 0 2
Nghost:    29.7891 ave 39 max 22 min
Histogram: 19 78 286 246 701 556 148 126 15 1
Neighs:    10.324 ave 33 max 0 min
Histogram: 178 392 523 392 399 200 61 27 1 3

Total # of neighbors = 22465
Ave neighs/atom = 7.02031
Neighbor list builds = 601
Dangerous builds = 0
Setting up Verlet run ...
  Unit style    : lj
  Current step  : 0
  Time step     : 0.005
Per MPI rank memory allocation (min/avg/max) = 3.327 | 3.327 | 3.327 Mbytes
Step Temp c_vacf[4] v_vacf 
       0    1.0348886    2.0691304            0 
    5000      1.01618  0.010970342    0.3062452 
   10000    1.0210865 0.0018251732    0.3939561 
   15000    1.0201407 -0.0051204578   0.50191967 
   20000    1.0169872  0.032935727   0.54134779 
   25000    1.0117798  -0.01580966     0.615112 
   30000    1.0284167 -0.0089673686   0.71447644 
   35000    1.0072394 -0.027346896   0.70401385 
   40000    1.0180797 -0.024551015   0.74660961 
   45000    1.0221593 -0.0059135592   0.75865906 
   50000    1.0150177  -0.04225538   0.87981449 
   55000    1.0190131 -0.039301263   0.91325887 
   60000    1.0153908  0.068561184   0.90266577 
Loop time of 60.0639 on 2176 procs for 60000 steps with 3200 atoms

Performance: 431540.677 tau/day, 998.937 timesteps/s
98.9% CPU use with 2176 MPI tasks x 1 OpenMP threads

MPI task timing breakdown:
Section |  min time  |  avg time  |  max time  |%varavg| %total
---------------------------------------------------------------
Pair    | 0.16581    | 0.17493    | 0.25872    |   2.4 |  0.29
Neigh   | 0.064826   | 0.069763   | 0.1066     |   2.2 |  0.12
Comm    | 9.1708     | 13.112     | 18.13      |  82.0 | 21.83
Output  | 0.011333   | 0.01167    | 0.012575   |   0.1 |  0.02
Modify  | 31.553     | 36.546     | 40.499     |  49.1 | 60.84
Other   |            | 10.15      |            |       | 16.90

Nlocal:    1.47059 ave 4 max 0 min
Histogram: 157 0 936 0 0 987 0 94 0 2
Nghost:    29.9081 ave 38 max 20 min
Histogram: 9 24 120 260 239 579 567 278 84 16
Neighs:    10.284 ave 33 max 0 min
Histogram: 171 403 492 438 388 205 50 19 8 2

Total # of neighbors = 22378
Ave neighs/atom = 6.99313
Neighbor list builds = 7770
Dangerous builds = 0
Total wall time: 0:01:03
endTime:Mon Dec  7 18:15:45 PST 2020


Starting job in fewerSwitch policy..
startTime:Mon Dec  7 18:15:46 PST 2020

LAMMPS (20 Apr 2018)
OMP_NUM_THREADS environment is not set. Defaulting to 1 thread. (../comm.cpp:90)
  using 1 OpenMP thread(s) per MPI task
Lattice spacing in x,y,z = 1.82574 1.82574 1.82574
Created orthogonal box = (0 0 -0.182574) to (73.0297 73.0297 0.182574)
  64 by 34 by 1 MPI processor grid
Created 3200 atoms
  Time spent = 0.00931001 secs
Neighbor list info ...
  update every 1 steps, delay 0 steps, check yes
  max neighbors/atom: 2000, page size: 100000
  master list distance cutoff = 2.8
  ghost atom cutoff = 2.8
  binsize = 1.4, bins = 53 53 1
  1 neighbor lists, perpetual/occasional/extra = 1 0 0
  (1) pair lj/cut, perpetual
      attributes: half, newton on
      pair build: half/bin/atomonly/newton
      stencil: half/bin/2d/newton
      bin: standard
Setting up Verlet run ...
  Unit style    : lj
  Current step  : 0
  Time step     : 0.005
Per MPI rank memory allocation (min/avg/max) = 2.702 | 2.797 | 2.952 Mbytes
Step Temp E_pair E_mol TotEng Press 
       0            1     -1.56492            0   -0.5652325   -1.5346995 
    1000    1.0063515   -1.5732592            0  -0.56722209    1.0061204 
    2000   0.95792094   -1.5781469            0  -0.62052531   0.96571772 
    3000   0.98401573    -1.588743            0  -0.60503472   0.97094222 
    4000   0.99740124   -1.5757024            0  -0.57861287   0.99998732 
    5000    1.0348886   -1.6022633            0  -0.56769811   0.97795086 
Loop time of 2.74301 on 2176 procs for 5000 steps with 3200 atoms

Performance: 787456.017 tau/day, 1822.815 timesteps/s
98.0% CPU use with 2176 MPI tasks x 1 OpenMP threads

MPI task timing breakdown:
Section |  min time  |  avg time  |  max time  |%varavg| %total
---------------------------------------------------------------
Pair    | 0.012119   | 0.014512   | 0.019971   |   0.7 |  0.53
Neigh   | 0.0047026  | 0.005393   | 0.0082171  |   0.6 |  0.20
Comm    | 0.67187    | 0.95811    | 1.3432     |  16.3 | 34.93
Output  | 0.0037589  | 0.0045389  | 0.005022   |   0.4 |  0.17
Modify  | 0.030864   | 0.033483   | 0.044733   |   0.7 |  1.22
Other   |            | 1.727      |            |       | 62.96

Nlocal:    1.47059 ave 4 max 0 min
Histogram: 156 0 945 0 0 972 0 101 0 2
Nghost:    29.7891 ave 39 max 22 min
Histogram: 19 78 286 246 701 556 148 126 15 1
Neighs:    10.324 ave 33 max 0 min
Histogram: 178 392 523 392 399 200 61 27 1 3

Total # of neighbors = 22465
Ave neighs/atom = 7.02031
Neighbor list builds = 601
Dangerous builds = 0
Setting up Verlet run ...
  Unit style    : lj
  Current step  : 0
  Time step     : 0.005
Per MPI rank memory allocation (min/avg/max) = 3.327 | 3.327 | 3.327 Mbytes
Step Temp c_vacf[4] v_vacf 
       0    1.0348886    2.0691304            0 
    5000      1.01618  0.010970342    0.3062452 
   10000    1.0210865 0.0018251732    0.3939561 
   15000    1.0201407 -0.0051204578   0.50191967 
   20000    1.0169872  0.032935727   0.54134779 
   25000    1.0117798  -0.01580966     0.615112 
   30000    1.0284167 -0.0089673686   0.71447644 
   35000    1.0072394 -0.027346896   0.70401385 
   40000    1.0180797 -0.024551015   0.74660961 
   45000    1.0221593 -0.0059135592   0.75865906 
   50000    1.0150177  -0.04225538   0.87981449 
   55000    1.0190131 -0.039301263   0.91325887 
   60000    1.0153908  0.068561184   0.90266577 
Loop time of 48.1896 on 2176 procs for 60000 steps with 3200 atoms

Performance: 537875.535 tau/day, 1245.082 timesteps/s
98.6% CPU use with 2176 MPI tasks x 1 OpenMP threads

MPI task timing breakdown:
Section |  min time  |  avg time  |  max time  |%varavg| %total
---------------------------------------------------------------
Pair    | 0.1651     | 0.17466    | 0.25628    |   2.2 |  0.36
Neigh   | 0.064748   | 0.069651   | 0.10676    |   2.2 |  0.14
Comm    | 8.328      | 11.612     | 15.996     |  58.2 | 24.10
Output  | 0.011364   | 0.0116     | 0.012379   |   0.1 |  0.02
Modify  | 23.678     | 28.031     | 31.307     |  37.5 | 58.17
Other   |            | 8.291      |            |       | 17.20

Nlocal:    1.47059 ave 4 max 0 min
Histogram: 157 0 936 0 0 987 0 94 0 2
Nghost:    29.9081 ave 38 max 20 min
Histogram: 9 24 120 260 239 579 567 278 84 16
Neighs:    10.284 ave 33 max 0 min
Histogram: 171 403 492 438 388 205 50 19 8 2

Total # of neighbors = 22378
Ave neighs/atom = 6.99313
Neighbor list builds = 7770
Dangerous builds = 0
Total wall time: 0:00:51
endTime:Mon Dec  7 18:16:55 PST 2020


Starting job in random policy..
startTime:Mon Dec  7 18:16:55 PST 2020

LAMMPS (20 Apr 2018)
OMP_NUM_THREADS environment is not set. Defaulting to 1 thread. (../comm.cpp:90)
  using 1 OpenMP thread(s) per MPI task
Lattice spacing in x,y,z = 1.82574 1.82574 1.82574
Created orthogonal box = (0 0 -0.182574) to (73.0297 73.0297 0.182574)
  64 by 34 by 1 MPI processor grid
Created 3200 atoms
  Time spent = 0.0131769 secs
Neighbor list info ...
  update every 1 steps, delay 0 steps, check yes
  max neighbors/atom: 2000, page size: 100000
  master list distance cutoff = 2.8
  ghost atom cutoff = 2.8
  binsize = 1.4, bins = 53 53 1
  1 neighbor lists, perpetual/occasional/extra = 1 0 0
  (1) pair lj/cut, perpetual
      attributes: half, newton on
      pair build: half/bin/atomonly/newton
      stencil: half/bin/2d/newton
      bin: standard
Setting up Verlet run ...
  Unit style    : lj
  Current step  : 0
  Time step     : 0.005
Per MPI rank memory allocation (min/avg/max) = 2.702 | 2.797 | 2.952 Mbytes
Step Temp E_pair E_mol TotEng Press 
       0            1     -1.56492            0   -0.5652325   -1.5346995 
    1000    1.0063515   -1.5732592            0  -0.56722209    1.0061204 
    2000   0.95792094   -1.5781469            0  -0.62052531   0.96571772 
    3000   0.98401573    -1.588743            0  -0.60503472   0.97094222 
    4000   0.99740124   -1.5757024            0  -0.57861287   0.99998732 
    5000    1.0348886   -1.6022633            0  -0.56769811   0.97795086 
Loop time of 3.93808 on 2176 procs for 5000 steps with 3200 atoms

Performance: 548491.211 tau/day, 1269.656 timesteps/s
98.5% CPU use with 2176 MPI tasks x 1 OpenMP threads

MPI task timing breakdown:
Section |  min time  |  avg time  |  max time  |%varavg| %total
---------------------------------------------------------------
Pair    | 0.012026   | 0.014562   | 0.020464   |   0.7 |  0.37
Neigh   | 0.0046875  | 0.0054065  | 0.0082583  |   0.6 |  0.14
Comm    | 0.96602    | 1.352      | 1.7273     |  13.2 | 34.33
Output  | 0.0064461  | 0.0073348  | 0.0080259  |   0.3 |  0.19
Modify  | 0.03079    | 0.033588   | 0.04639    |   0.9 |  0.85
Other   |            | 2.525      |            |       | 64.12

Nlocal:    1.47059 ave 4 max 0 min
Histogram: 156 0 945 0 0 972 0 101 0 2
Nghost:    29.7891 ave 39 max 22 min
Histogram: 19 78 286 246 701 556 148 126 15 1
Neighs:    10.324 ave 33 max 0 min
Histogram: 178 392 523 392 399 200 61 27 1 3

Total # of neighbors = 22465
Ave neighs/atom = 7.02031
Neighbor list builds = 601
Dangerous builds = 0
Setting up Verlet run ...
  Unit style    : lj
  Current step  : 0
  Time step     : 0.005
Per MPI rank memory allocation (min/avg/max) = 3.327 | 3.327 | 3.327 Mbytes
Step Temp c_vacf[4] v_vacf 
       0    1.0348886    2.0691304            0 
    5000      1.01618  0.010970342    0.3062452 
   10000    1.0210865 0.0018251732    0.3939561 
   15000    1.0201407 -0.0051204578   0.50191967 
   20000    1.0169872  0.032935727   0.54134779 
   25000    1.0117798  -0.01580966     0.615112 
   30000    1.0284167 -0.0089673686   0.71447644 
   35000    1.0072394 -0.027346896   0.70401385 
   40000    1.0180797 -0.024551015   0.74660961 
   45000    1.0221593 -0.0059135592   0.75865906 
   50000    1.0150177  -0.04225538   0.87981449 
   55000    1.0190131 -0.039301263   0.91325887 
   60000    1.0153908  0.068561184   0.90266577 
Loop time of 87.8254 on 2176 procs for 60000 steps with 3200 atoms

Performance: 295131.145 tau/day, 683.174 timesteps/s
99.1% CPU use with 2176 MPI tasks x 1 OpenMP threads

MPI task timing breakdown:
Section |  min time  |  avg time  |  max time  |%varavg| %total
---------------------------------------------------------------
Pair    | 0.16532    | 0.17584    | 0.27259    |   3.1 |  0.20
Neigh   | 0.064788   | 0.070158   | 0.10835    |   2.3 |  0.08
Comm    | 13.885     | 19.668     | 25.443     |  59.1 | 22.39
Output  | 0.013964   | 0.015791   | 0.017413   |   0.7 |  0.02
Modify  | 47.263     | 53.009     | 58.776     |  36.2 | 60.36
Other   |            | 14.89      |            |       | 16.95

Nlocal:    1.47059 ave 4 max 0 min
Histogram: 157 0 936 0 0 987 0 94 0 2
Nghost:    29.9081 ave 38 max 20 min
Histogram: 9 24 120 260 239 579 567 278 84 16
Neighs:    10.284 ave 33 max 0 min
Histogram: 171 403 492 438 388 205 50 19 8 2

Total # of neighbors = 22378
Ave neighs/atom = 6.99313
Neighbor list builds = 7770
Dangerous builds = 0
Total wall time: 0:01:31
endTime:Mon Dec  7 18:18:45 PST 2020


Starting job in antinedd policy..
startTime:Mon Dec  7 18:18:45 PST 2020

LAMMPS (20 Apr 2018)
OMP_NUM_THREADS environment is not set. Defaulting to 1 thread. (../comm.cpp:90)
  using 1 OpenMP thread(s) per MPI task
Lattice spacing in x,y,z = 1.82574 1.82574 1.82574
Created orthogonal box = (0 0 -0.182574) to (73.0297 73.0297 0.182574)
  64 by 34 by 1 MPI processor grid
Created 3200 atoms
  Time spent = 0.00848103 secs
Neighbor list info ...
  update every 1 steps, delay 0 steps, check yes
  max neighbors/atom: 2000, page size: 100000
  master list distance cutoff = 2.8
  ghost atom cutoff = 2.8
  binsize = 1.4, bins = 53 53 1
  1 neighbor lists, perpetual/occasional/extra = 1 0 0
  (1) pair lj/cut, perpetual
      attributes: half, newton on
      pair build: half/bin/atomonly/newton
      stencil: half/bin/2d/newton
      bin: standard
Setting up Verlet run ...
  Unit style    : lj
  Current step  : 0
  Time step     : 0.005
Per MPI rank memory allocation (min/avg/max) = 2.702 | 2.797 | 2.952 Mbytes
Step Temp E_pair E_mol TotEng Press 
       0            1     -1.56492            0   -0.5652325   -1.5346995 
    1000    1.0063515   -1.5732592            0  -0.56722209    1.0061204 
    2000   0.95792094   -1.5781469            0  -0.62052531   0.96571772 
    3000   0.98401573    -1.588743            0  -0.60503472   0.97094222 
    4000   0.99740124   -1.5757024            0  -0.57861287   0.99998732 
    5000    1.0348886   -1.6022633            0  -0.56769811   0.97795086 
Loop time of 3.69837 on 2176 procs for 5000 steps with 3200 atoms

Performance: 584041.679 tau/day, 1351.948 timesteps/s
98.4% CPU use with 2176 MPI tasks x 1 OpenMP threads

MPI task timing breakdown:
Section |  min time  |  avg time  |  max time  |%varavg| %total
---------------------------------------------------------------
Pair    | 0.011924   | 0.014425   | 0.020651   |   0.7 |  0.39
Neigh   | 0.0046268  | 0.0053914  | 0.0082703  |   0.6 |  0.15
Comm    | 0.88574    | 1.2357     | 1.6661     |  16.8 | 33.41
Output  | 0.0055304  | 0.0064171  | 0.0070322  |   0.4 |  0.17
Modify  | 0.030473   | 0.033146   | 0.046363   |   0.8 |  0.90
Other   |            | 2.403      |            |       | 64.98

Nlocal:    1.47059 ave 4 max 0 min
Histogram: 156 0 945 0 0 972 0 101 0 2
Nghost:    29.7891 ave 39 max 22 min
Histogram: 19 78 286 246 701 556 148 126 15 1
Neighs:    10.324 ave 33 max 0 min
Histogram: 178 392 523 392 399 200 61 27 1 3

Total # of neighbors = 22465
Ave neighs/atom = 7.02031
Neighbor list builds = 601
Dangerous builds = 0
Setting up Verlet run ...
  Unit style    : lj
  Current step  : 0
  Time step     : 0.005
Per MPI rank memory allocation (min/avg/max) = 3.327 | 3.327 | 3.327 Mbytes
Step Temp c_vacf[4] v_vacf 
       0    1.0348886    2.0691304            0 
    5000      1.01618  0.010970342    0.3062452 
   10000    1.0210865 0.0018251732    0.3939561 
   15000    1.0201407 -0.0051204578   0.50191967 
   20000    1.0169872  0.032935727   0.54134779 
   25000    1.0117798  -0.01580966     0.615112 
   30000    1.0284167 -0.0089673686   0.71447644 
   35000    1.0072394 -0.027346896   0.70401385 
   40000    1.0180797 -0.024551015   0.74660961 
   45000    1.0221593 -0.0059135592   0.75865906 
   50000    1.0150177  -0.04225538   0.87981449 
   55000    1.0190131 -0.039301263   0.91325887 
   60000    1.0153908  0.068561184   0.90266577 
Loop time of 65.929 on 2176 procs for 60000 steps with 3200 atoms

Performance: 393150.212 tau/day, 910.070 timesteps/s
98.9% CPU use with 2176 MPI tasks x 1 OpenMP threads

MPI task timing breakdown:
Section |  min time  |  avg time  |  max time  |%varavg| %total
---------------------------------------------------------------
Pair    | 0.16416    | 0.17393    | 0.2696     |   2.8 |  0.26
Neigh   | 0.06443    | 0.069826   | 0.10906    |   2.3 |  0.11
Comm    | 10.379     | 15.322     | 20.811     |  63.8 | 23.24
Output  | 0.012088   | 0.012461   | 0.013391   |   0.2 |  0.02
Modify  | 34.539     | 40.05      | 45.039     |  39.5 | 60.75
Other   |            | 10.3       |            |       | 15.62

Nlocal:    1.47059 ave 4 max 0 min
Histogram: 157 0 936 0 0 987 0 94 0 2
Nghost:    29.9081 ave 38 max 20 min
Histogram: 9 24 120 260 239 579 567 278 84 16
Neighs:    10.284 ave 33 max 0 min
Histogram: 171 403 492 438 388 205 50 19 8 2

Total # of neighbors = 22378
Ave neighs/atom = 6.99313
Neighbor list builds = 7770
Dangerous builds = 0
Total wall time: 0:01:09
endTime:Mon Dec  7 18:20:06 PST 2020


Starting job in fewerNoCong policy..
startTime:Mon Dec  7 18:20:12 PST 2020

LAMMPS (20 Apr 2018)
OMP_NUM_THREADS environment is not set. Defaulting to 1 thread. (../comm.cpp:90)
  using 1 OpenMP thread(s) per MPI task
Lattice spacing in x,y,z = 1.82574 1.82574 1.82574
Created orthogonal box = (0 0 -0.182574) to (73.0297 73.0297 0.182574)
  64 by 34 by 1 MPI processor grid
Created 3200 atoms
  Time spent = 0.00464797 secs
Neighbor list info ...
  update every 1 steps, delay 0 steps, check yes
  max neighbors/atom: 2000, page size: 100000
  master list distance cutoff = 2.8
  ghost atom cutoff = 2.8
  binsize = 1.4, bins = 53 53 1
  1 neighbor lists, perpetual/occasional/extra = 1 0 0
  (1) pair lj/cut, perpetual
      attributes: half, newton on
      pair build: half/bin/atomonly/newton
      stencil: half/bin/2d/newton
      bin: standard
Setting up Verlet run ...
  Unit style    : lj
  Current step  : 0
  Time step     : 0.005
Per MPI rank memory allocation (min/avg/max) = 2.702 | 2.797 | 2.952 Mbytes
Step Temp E_pair E_mol TotEng Press 
       0            1     -1.56492            0   -0.5652325   -1.5346995 
    1000    1.0063515   -1.5732592            0  -0.56722209    1.0061204 
    2000   0.95792094   -1.5781469            0  -0.62052531   0.96571772 
    3000   0.98401573    -1.588743            0  -0.60503472   0.97094222 
    4000   0.99740124   -1.5757024            0  -0.57861287   0.99998732 
    5000    1.0348886   -1.6022633            0  -0.56769811   0.97795086 
Loop time of 2.56302 on 2176 procs for 5000 steps with 3200 atoms

Performance: 842757.031 tau/day, 1950.826 timesteps/s
97.9% CPU use with 2176 MPI tasks x 1 OpenMP threads

MPI task timing breakdown:
Section |  min time  |  avg time  |  max time  |%varavg| %total
---------------------------------------------------------------
Pair    | 0.012017   | 0.014508   | 0.020468   |   0.7 |  0.57
Neigh   | 0.0046451  | 0.0053872  | 0.0082788  |   0.6 |  0.21
Comm    | 0.67547    | 0.91566    | 1.2945     |  15.9 | 35.73
Output  | 0.0032558  | 0.0040026  | 0.0043092  |   0.3 |  0.16
Modify  | 0.030775   | 0.033474   | 0.045014   |   0.7 |  1.31
Other   |            | 1.59       |            |       | 62.04

Nlocal:    1.47059 ave 4 max 0 min
Histogram: 156 0 945 0 0 972 0 101 0 2
Nghost:    29.7891 ave 39 max 22 min
Histogram: 19 78 286 246 701 556 148 126 15 1
Neighs:    10.324 ave 33 max 0 min
Histogram: 178 392 523 392 399 200 61 27 1 3

Total # of neighbors = 22465
Ave neighs/atom = 7.02031
Neighbor list builds = 601
Dangerous builds = 0
Setting up Verlet run ...
  Unit style    : lj
  Current step  : 0
  Time step     : 0.005
Per MPI rank memory allocation (min/avg/max) = 3.327 | 3.327 | 3.327 Mbytes
Step Temp c_vacf[4] v_vacf 
       0    1.0348886    2.0691304            0 
    5000      1.01618  0.010970342    0.3062452 
   10000    1.0210865 0.0018251732    0.3939561 
   15000    1.0201407 -0.0051204578   0.50191967 
   20000    1.0169872  0.032935727   0.54134779 
   25000    1.0117798  -0.01580966     0.615112 
   30000    1.0284167 -0.0089673686   0.71447644 
   35000    1.0072394 -0.027346896   0.70401385 
   40000    1.0180797 -0.024551015   0.74660961 
   45000    1.0221593 -0.0059135592   0.75865906 
   50000    1.0150177  -0.04225538   0.87981449 
[...]
Dangerous builds = 0
Setting up Verlet run ...
  Unit style    : lj
  Current step  : 0
  Time step     : 0.005
Per MPI rank memory allocation (min/avg/max) = 3.327 | 3.327 | 3.327 Mbytes
Step Temp c_vacf[4] v_vacf 
       0    1.0348886    2.0691304            0 
    5000      1.01618  0.010970342    0.3062452 
   10000    1.0210865 0.0018251732    0.3939561 
   15000    1.0201407 -0.0051204578   0.50191967 
   20000    1.0169872  0.032935727   0.54134779 
   25000    1.0117798  -0.01580966     0.615112 
   30000    1.0284167 -0.0089673686   0.71447644 
   35000    1.0072394 -0.027346896   0.70401385 
   40000    1.0180797 -0.024551015   0.74660961 
   45000    1.0221593 -0.0059135592   0.75865906 
   50000    1.0150177  -0.04225538   0.87981449 
   55000    1.0190131 -0.039301263   0.91325887 
   60000    1.0153908  0.068561184   0.90266577 
Loop time of 57.728 on 2176 procs for 60000 steps with 3200 atoms

Performance: 449001.850 tau/day, 1039.356 timesteps/s
98.8% CPU use with 2176 MPI tasks x 1 OpenMP threads

MPI task timing breakdown:
Section |  min time  |  avg time  |  max time  |%varavg| %total
---------------------------------------------------------------
Pair    | 0.16449    | 0.17348    | 0.258      |   2.5 |  0.30
Neigh   | 0.064629   | 0.069766   | 0.10821    |   2.2 |  0.12
Comm    | 9.4547     | 12.495     | 18.288     |  62.7 | 21.64
Output  | 0.012366   | 0.01297    | 0.014323   |   0.3 |  0.02
Modify  | 28.055     | 33.915     | 36.958     |  37.9 | 58.75
Other   |            | 11.06      |            |       | 19.16

Nlocal:    1.47059 ave 4 max 0 min
Histogram: 157 0 936 0 0 987 0 94 0 2
Nghost:    29.9081 ave 38 max 20 min
Histogram: 9 24 120 260 239 579 567 278 84 16
Neighs:    10.284 ave 33 max 0 min
Histogram: 171 403 492 438 388 205 50 19 8 2

Total # of neighbors = 22378
Ave neighs/atom = 6.99313
Neighbor list builds = 7770
Dangerous builds = 0
Total wall time: 0:01:00
endTime:Mon Dec  7 19:51:09 PST 2020


Starting job in fewerSwitch policy..
startTime:Mon Dec  7 19:51:09 PST 2020

LAMMPS (20 Apr 2018)
OMP_NUM_THREADS environment is not set. Defaulting to 1 thread. (../comm.cpp:90)
  using 1 OpenMP thread(s) per MPI task
Lattice spacing in x,y,z = 1.82574 1.82574 1.82574
Created orthogonal box = (0 0 -0.182574) to (73.0297 73.0297 0.182574)
  64 by 34 by 1 MPI processor grid
Created 3200 atoms
  Time spent = 0.00541592 secs
Neighbor list info ...
  update every 1 steps, delay 0 steps, check yes
  max neighbors/atom: 2000, page size: 100000
  master list distance cutoff = 2.8
  ghost atom cutoff = 2.8
  binsize = 1.4, bins = 53 53 1
  1 neighbor lists, perpetual/occasional/extra = 1 0 0
  (1) pair lj/cut, perpetual
      attributes: half, newton on
      pair build: half/bin/atomonly/newton
      stencil: half/bin/2d/newton
      bin: standard
Setting up Verlet run ...
  Unit style    : lj
  Current step  : 0
  Time step     : 0.005
Per MPI rank memory allocation (min/avg/max) = 2.702 | 2.797 | 2.952 Mbytes
Step Temp E_pair E_mol TotEng Press 
       0            1     -1.56492            0   -0.5652325   -1.5346995 
    1000    1.0063515   -1.5732592            0  -0.56722209    1.0061204 
    2000   0.95792094   -1.5781469            0  -0.62052531   0.96571772 
    3000   0.98401573    -1.588743            0  -0.60503472   0.97094222 
    4000   0.99740124   -1.5757024            0  -0.57861287   0.99998732 
    5000    1.0348886   -1.6022633            0  -0.56769811   0.97795086 
Loop time of 2.74352 on 2176 procs for 5000 steps with 3200 atoms

Performance: 787309.187 tau/day, 1822.475 timesteps/s
98.1% CPU use with 2176 MPI tasks x 1 OpenMP threads

MPI task timing breakdown:
Section |  min time  |  avg time  |  max time  |%varavg| %total
---------------------------------------------------------------
Pair    | 0.011889   | 0.014391   | 0.020046   |   0.7 |  0.52
Neigh   | 0.0046291  | 0.0053741  | 0.0082088  |   0.6 |  0.20
Comm    | 0.71783    | 0.92844    | 1.4309     |  16.2 | 33.84
Output  | 0.0056763  | 0.0067428  | 0.0070856  |   0.4 |  0.25
Modify  | 0.030793   | 0.03316    | 0.044672   |   0.8 |  1.21
Other   |            | 1.755      |            |       | 63.98

Nlocal:    1.47059 ave 4 max 0 min
Histogram: 156 0 945 0 0 972 0 101 0 2
Nghost:    29.7891 ave 39 max 22 min
Histogram: 19 78 286 246 701 556 148 126 15 1
Neighs:    10.324 ave 33 max 0 min
Histogram: 178 392 523 392 399 200 61 27 1 3

Total # of neighbors = 22465
Ave neighs/atom = 7.02031
Neighbor list builds = 601
Dangerous builds = 0
Setting up Verlet run ...
  Unit style    : lj
  Current step  : 0
  Time step     : 0.005
Per MPI rank memory allocation (min/avg/max) = 3.327 | 3.327 | 3.327 Mbytes
Step Temp c_vacf[4] v_vacf 
       0    1.0348886    2.0691304            0 
    5000      1.01618  0.010970342    0.3062452 
   10000    1.0210865 0.0018251732    0.3939561 
   15000    1.0201407 -0.0051204578   0.50191967 
   20000    1.0169872  0.032935727   0.54134779 
   25000    1.0117798  -0.01580966     0.615112 
   30000    1.0284167 -0.0089673686   0.71447644 
   35000    1.0072394 -0.027346896   0.70401385 
   40000    1.0180797 -0.024551015   0.74660961 
   45000    1.0221593 -0.0059135592   0.75865906 
   50000    1.0150177  -0.04225538   0.87981449 
   55000    1.0190131 -0.039301263   0.91325887 
   60000    1.0153908  0.068561184   0.90266577 
Loop time of 55.639 on 2176 procs for 60000 steps with 3200 atoms

Performance: 465860.061 tau/day, 1078.380 timesteps/s
98.8% CPU use with 2176 MPI tasks x 1 OpenMP threads

MPI task timing breakdown:
Section |  min time  |  avg time  |  max time  |%varavg| %total
---------------------------------------------------------------
Pair    | 0.16326    | 0.17343    | 0.25472    |   2.4 |  0.31
Neigh   | 0.064239   | 0.06979    | 0.10681    |   2.2 |  0.13
Comm    | 9.3528     | 11.926     | 18.201     |  58.5 | 21.44
Output  | 0.012984   | 0.014321   | 0.015624   |   0.6 |  0.03
Modify  | 26.238     | 32.624     | 35.16      |  35.4 | 58.63
Other   |            | 10.83      |            |       | 19.47

Nlocal:    1.47059 ave 4 max 0 min
Histogram: 157 0 936 0 0 987 0 94 0 2
Nghost:    29.9081 ave 38 max 20 min
Histogram: 9 24 120 260 239 579 567 278 84 16
Neighs:    10.284 ave 33 max 0 min
Histogram: 171 403 492 438 388 205 50 19 8 2

Total # of neighbors = 22378
Ave neighs/atom = 6.99313
Neighbor list builds = 7770
Dangerous builds = 0
Total wall time: 0:00:58
endTime:Mon Dec  7 19:52:25 PST 2020


Starting job in random policy..
startTime:Mon Dec  7 19:52:25 PST 2020

LAMMPS (20 Apr 2018)
OMP_NUM_THREADS environment is not set. Defaulting to 1 thread. (../comm.cpp:90)
  using 1 OpenMP thread(s) per MPI task
Lattice spacing in x,y,z = 1.82574 1.82574 1.82574
Created orthogonal box = (0 0 -0.182574) to (73.0297 73.0297 0.182574)
  64 by 34 by 1 MPI processor grid
Created 3200 atoms
  Time spent = 0.0143049 secs
Neighbor list info ...
  update every 1 steps, delay 0 steps, check yes
  max neighbors/atom: 2000, page size: 100000
  master list distance cutoff = 2.8
  ghost atom cutoff = 2.8
  binsize = 1.4, bins = 53 53 1
  1 neighbor lists, perpetual/occasional/extra = 1 0 0
  (1) pair lj/cut, perpetual
      attributes: half, newton on
      pair build: half/bin/atomonly/newton
      stencil: half/bin/2d/newton
      bin: standard
Setting up Verlet run ...
  Unit style    : lj
  Current step  : 0
  Time step     : 0.005
Per MPI rank memory allocation (min/avg/max) = 2.702 | 2.797 | 2.952 Mbytes
Step Temp E_pair E_mol TotEng Press 
       0            1     -1.56492            0   -0.5652325   -1.5346995 
    1000    1.0063515   -1.5732592            0  -0.56722209    1.0061204 
    2000   0.95792094   -1.5781469            0  -0.62052531   0.96571772 
    3000   0.98401573    -1.588743            0  -0.60503472   0.97094222 
    4000   0.99740124   -1.5757024            0  -0.57861287   0.99998732 
    5000    1.0348886   -1.6022633            0  -0.56769811   0.97795086 
Loop time of 5.02987 on 2176 procs for 5000 steps with 3200 atoms

Performance: 429434.728 tau/day, 994.062 timesteps/s
98.7% CPU use with 2176 MPI tasks x 1 OpenMP threads

MPI task timing breakdown:
Section |  min time  |  avg time  |  max time  |%varavg| %total
---------------------------------------------------------------
Pair    | 0.012117   | 0.0146     | 0.021945   |   0.8 |  0.29
Neigh   | 0.0046735  | 0.0054336  | 0.0083642  |   0.6 |  0.11
Comm    | 1.0189     | 1.5907     | 2.0501     |  17.9 | 31.63
Output  | 0.0087662  | 0.0094624  | 0.0099752  |   0.3 |  0.19
Modify  | 0.030965   | 0.033672   | 0.04934    |   1.0 |  0.67
Other   |            | 3.376      |            |       | 67.12

Nlocal:    1.47059 ave 4 max 0 min
Histogram: 156 0 945 0 0 972 0 101 0 2
Nghost:    29.7891 ave 39 max 22 min
Histogram: 19 78 286 246 701 556 148 126 15 1
Neighs:    10.324 ave 33 max 0 min
Histogram: 178 392 523 392 399 200 61 27 1 3

Total # of neighbors = 22465
Ave neighs/atom = 7.02031
Neighbor list builds = 601
Dangerous builds = 0
Setting up Verlet run ...
  Unit style    : lj
  Current step  : 0
  Time step     : 0.005
Per MPI rank memory allocation (min/avg/max) = 3.327 | 3.327 | 3.327 Mbytes
Step Temp c_vacf[4] v_vacf 
       0    1.0348886    2.0691304            0 
    5000      1.01618  0.010970342    0.3062452 
   10000    1.0210865 0.0018251732    0.3939561 
   15000    1.0201407 -0.0051204578   0.50191967 
   20000    1.0169872  0.032935727   0.54134779 
   25000    1.0117798  -0.01580966     0.615112 
   30000    1.0284167 -0.0089673686   0.71447644 
   35000    1.0072394 -0.027346896   0.70401385 
   40000    1.0180797 -0.024551015   0.74660961 
   45000    1.0221593 -0.0059135592   0.75865906 
   50000    1.0150177  -0.04225538   0.87981449 
   55000    1.0190131 -0.039301263   0.91325887 
   60000    1.0153908  0.068561184   0.90266577 
Loop time of 142.391 on 2176 procs for 60000 steps with 3200 atoms

Performance: 182034.059 tau/day, 421.375 timesteps/s
99.4% CPU use with 2176 MPI tasks x 1 OpenMP threads

MPI task timing breakdown:
Section |  min time  |  avg time  |  max time  |%varavg| %total
---------------------------------------------------------------
Pair    | 0.16497    | 0.177      | 0.30388    |   4.0 |  0.12
Neigh   | 0.064947   | 0.07093    | 0.1113     |   2.5 |  0.05
Comm    | 18.883     | 27.048     | 40.522     | 106.8 | 19.00
Output  | 0.018593   | 0.020237   | 0.021856   |   0.5 |  0.01
Modify  | 74.12      | 87.609     | 95.612     |  59.3 | 61.53
Other   |            | 27.47      |            |       | 19.29

Nlocal:    1.47059 ave 4 max 0 min
Histogram: 157 0 936 0 0 987 0 94 0 2
Nghost:    29.9081 ave 38 max 20 min
Histogram: 9 24 120 260 239 579 567 278 84 16
Neighs:    10.284 ave 33 max 0 min
Histogram: 171 403 492 438 388 205 50 19 8 2

Total # of neighbors = 22378
Ave neighs/atom = 6.99313
Neighbor list builds = 7770
Dangerous builds = 0
Total wall time: 0:02:27
endTime:Mon Dec  7 19:55:09 PST 2020


Starting job in antinedd policy..
startTime:Mon Dec  7 19:55:09 PST 2020

LAMMPS (20 Apr 2018)
OMP_NUM_THREADS environment is not set. Defaulting to 1 thread. (../comm.cpp:90)
  using 1 OpenMP thread(s) per MPI task
Lattice spacing in x,y,z = 1.82574 1.82574 1.82574
Created orthogonal box = (0 0 -0.182574) to (73.0297 73.0297 0.182574)
  64 by 34 by 1 MPI processor grid
Created 3200 atoms
  Time spent = 0.012233 secs
Neighbor list info ...
  update every 1 steps, delay 0 steps, check yes
  max neighbors/atom: 2000, page size: 100000
  master list distance cutoff = 2.8
  ghost atom cutoff = 2.8
  binsize = 1.4, bins = 53 53 1
  1 neighbor lists, perpetual/occasional/extra = 1 0 0
  (1) pair lj/cut, perpetual
      attributes: half, newton on
      pair build: half/bin/atomonly/newton
      stencil: half/bin/2d/newton
      bin: standard
Setting up Verlet run ...
  Unit style    : lj
  Current step  : 0
  Time step     : 0.005
Per MPI rank memory allocation (min/avg/max) = 2.702 | 2.797 | 2.952 Mbytes
Step Temp E_pair E_mol TotEng Press 
       0            1     -1.56492            0   -0.5652325   -1.5346995 
    1000    1.0063515   -1.5732592            0  -0.56722209    1.0061204 
    2000   0.95792094   -1.5781469            0  -0.62052531   0.96571772 
    3000   0.98401573    -1.588743            0  -0.60503472   0.97094222 
    4000   0.99740124   -1.5757024            0  -0.57861287   0.99998732 
    5000    1.0348886   -1.6022633            0  -0.56769811   0.97795086 
Loop time of 12.1546 on 2176 procs for 5000 steps with 3200 atoms

Performance: 177710.296 tau/day, 411.366 timesteps/s
99.4% CPU use with 2176 MPI tasks x 1 OpenMP threads

MPI task timing breakdown:
Section |  min time  |  avg time  |  max time  |%varavg| %total
---------------------------------------------------------------
Pair    | 0.011942   | 0.014608   | 0.025061   |   1.2 |  0.12
Neigh   | 0.0048151  | 0.0055613  | 0.0088859  |   0.7 |  0.05
Comm    | 1.4369     | 3.1014     | 6.4831     |  73.8 | 25.52
Output  | 0.01455    | 0.026178   | 0.029049   |   1.2 |  0.22
Modify  | 0.031057   | 0.033732   | 0.054119   |   1.6 |  0.28
Other   |            | 8.973      |            |       | 73.83

Nlocal:    1.47059 ave 4 max 0 min
Histogram: 156 0 945 0 0 972 0 101 0 2
Nghost:    29.7891 ave 39 max 22 min
Histogram: 19 78 286 246 701 556 148 126 15 1
Neighs:    10.324 ave 33 max 0 min
Histogram: 178 392 523 392 399 200 61 27 1 3

Total # of neighbors = 22465
Ave neighs/atom = 7.02031
Neighbor list builds = 601
Dangerous builds = 0
Setting up Verlet run ...
  Unit style    : lj
  Current step  : 0
  Time step     : 0.005
Per MPI rank memory allocation (min/avg/max) = 3.327 | 3.327 | 3.327 Mbytes
Step Temp c_vacf[4] v_vacf 
       0    1.0348886    2.0691304            0 
    5000      1.01618  0.010970342    0.3062452 
   10000    1.0210865 0.0018251732    0.3939561 
   15000    1.0201407 -0.0051204578   0.50191967 
   20000    1.0169872  0.032935727   0.54134779 
   25000    1.0117798  -0.01580966     0.615112 
   30000    1.0284167 -0.0089673686   0.71447644 
   35000    1.0072394 -0.027346896   0.70401385 
   40000    1.0180797 -0.024551015   0.74660961 
   45000    1.0221593 -0.0059135592   0.75865906 
   50000    1.0150177  -0.04225538   0.87981449 
   55000    1.0190131 -0.039301263   0.91325887 
   60000    1.0153908  0.068561184   0.90266577 
Loop time of 129.672 on 2176 procs for 60000 steps with 3200 atoms

Performance: 199889.404 tau/day, 462.707 timesteps/s
99.4% CPU use with 2176 MPI tasks x 1 OpenMP threads

MPI task timing breakdown:
Section |  min time  |  avg time  |  max time  |%varavg| %total
---------------------------------------------------------------
Pair    | 0.16407    | 0.17495    | 0.29299    |   3.7 |  0.13
Neigh   | 0.065322   | 0.071105   | 0.11097    |   2.4 |  0.05
Comm    | 13.776     | 25.063     | 45.938     | 155.9 | 19.33
Output  | 0.016858   | 0.017973   | 0.019741   |   0.7 |  0.01
Modify  | 64.094     | 84.965     | 96.282     |  84.7 | 65.52
Other   |            | 19.38      |            |       | 14.95

Nlocal:    1.47059 ave 4 max 0 min
Histogram: 157 0 936 0 0 987 0 94 0 2
Nghost:    29.9081 ave 38 max 20 min
Histogram: 9 24 120 260 239 579 567 278 84 16
Neighs:    10.284 ave 33 max 0 min
Histogram: 171 403 492 438 388 205 50 19 8 2

Total # of neighbors = 22378
Ave neighs/atom = 6.99313
Neighbor list builds = 7770
Dangerous builds = 0
Total wall time: 0:02:22
endTime:Mon Dec  7 19:57:44 PST 2020


Starting job in fewerNoCong policy..
startTime:Mon Dec  7 19:57:50 PST 2020

LAMMPS (20 Apr 2018)
OMP_NUM_THREADS environment is not set. Defaulting to 1 thread. (../comm.cpp:90)
  using 1 OpenMP thread(s) per MPI task
Lattice spacing in x,y,z = 1.82574 1.82574 1.82574
Created orthogonal box = (0 0 -0.182574) to (73.0297 73.0297 0.182574)
  64 by 34 by 1 MPI processor grid
Created 3200 atoms
  Time spent = 0.00866103 secs
Neighbor list info ...
  update every 1 steps, delay 0 steps, check yes
  max neighbors/atom: 2000, page size: 100000
  master list distance cutoff = 2.8
  ghost atom cutoff = 2.8
  binsize = 1.4, bins = 53 53 1
  1 neighbor lists, perpetual/occasional/extra = 1 0 0
  (1) pair lj/cut, perpetual
      attributes: half, newton on
      pair build: half/bin/atomonly/newton
      stencil: half/bin/2d/newton
      bin: standard
Setting up Verlet run ...
  Unit style    : lj
  Current step  : 0
  Time step     : 0.005
Per MPI rank memory allocation (min/avg/max) = 2.702 | 2.797 | 2.952 Mbytes
Step Temp E_pair E_mol TotEng Press 
       0            1     -1.56492            0   -0.5652325   -1.5346995 
    1000    1.0063515   -1.5732592            0  -0.56722209    1.0061204 
    2000   0.95792094   -1.5781469            0  -0.62052531   0.96571772 
    3000   0.98401573    -1.588743            0  -0.60503472   0.97094222 
    4000   0.99740124   -1.5757024            0  -0.57861287   0.99998732 
    5000    1.0348886   -1.6022633            0  -0.56769811   0.97795086 
Loop time of 2.76631 on 2176 procs for 5000 steps with 3200 atoms

Performance: 780823.313 tau/day, 1807.461 timesteps/s
98.1% CPU use with 2176 MPI tasks x 1 OpenMP threads

MPI task timing breakdown:
Section |  min time  |  avg time  |  max time  |%varavg| %total
---------------------------------------------------------------
Pair    | 0.011957   | 0.014376   | 0.020191   |   0.7 |  0.52
Neigh   | 0.0046296  | 0.0053697  | 0.0081429  |   0.6 |  0.19
Comm    | 0.74481    | 0.93922    | 1.3706     |  13.9 | 33.95
Output  | 0.0090721  | 0.01168    | 0.012719   |   0.7 |  0.42
Modify  | 0.030623   | 0.033119   | 0.043686   |   0.8 |  1.20
Other   |            | 1.763      |            |       | 63.71

Nlocal:    1.47059 ave 4 max 0 min
Histogram: 156 0 945 0 0 972 0 101 0 2
Nghost:    29.7891 ave 39 max 22 min
Histogram: 19 78 286 246 701 556 148 126 15 1
Neighs:    10.324 ave 33 max 0 min
Histogram: 178 392 523 392 399 200 61 27 1 3

Total # of neighbors = 22465
Ave neighs/atom = 7.02031
Neighbor list builds = 601
Dangerous builds = 0
Setting up Verlet run ...
  Unit style    : lj
  Current step  : 0
  Time step     : 0.005
Per MPI rank memory allocation (min/avg/max) = 3.327 | 3.327 | 3.327 Mbytes
Step Temp c_vacf[4] v_vacf 
       0    1.0348886    2.0691304            0 
    5000      1.01618  0.010970342    0.3062452 
   10000    1.0210865 0.0018251732    0.3939561 
   15000    1.0201407 -0.0051204578   0.50191967 
   20000    1.0169872  0.032935727   0.54134779 
   25000    1.0117798  -0.01580966     0.615112 
   30000    1.0284167 -0.0089673686   0.71447644 
   35000    1.0072394 -0.027346896   0.70401385 
   40000    1.0180797 -0.024551015   0.74660961 
   45000    1.0221593 -0.0059135592   0.75865906 
   50000    1.0150177  -0.04225538   0.87981449 
   55000    1.0190131 -0.039301263   0.91325887 
   60000    1.0153908  0.068561184   0.90266577 
Loop time of 51.8278 on 2176 procs for 60000 steps with 3200 atoms

Performance: 500117.685 tau/day, 1157.680 timesteps/s
98.8% CPU use with 2176 MPI tasks x 1 OpenMP threads

MPI task timing breakdown:
Section |  min time  |  avg time  |  max time  |%varavg| %total
---------------------------------------------------------------
Pair    | 0.16445    | 0.17324    | 0.24764    |   2.4 |  0.33
Neigh   | 0.064477   | 0.069575   | 0.10598    |   2.2 |  0.13
Comm    | 9.182      | 11.417     | 16.401     |  46.7 | 22.03
Output  | 0.013007   | 0.01341    | 0.014451   |   0.2 |  0.03
Modify  | 24.964     | 29.987     | 32.166     |  28.7 | 57.86
Other   |            | 10.17      |            |       | 19.62

Nlocal:    1.47059 ave 4 max 0 min
Histogram: 157 0 936 0 0 987 0 94 0 2
Nghost:    29.9081 ave 38 max 20 min
Histogram: 9 24 120 260 239 579 567 278 84 16
Neighs:    10.284 ave 33 max 0 min
Histogram: 171 403 492 438 388 205 50 19 8 2

Total # of neighbors = 22378
Ave neighs/atom = 6.99313
Neighbor list builds = 7770
Dangerous builds = 0
Total wall time: 0:00:54
endTime:Mon Dec  7 19:58:56 PST 2020


