Starting..
====================
iteration 0
Starting job in nedd policy..
startTime:Mon Nov 16 03:24:09 PST 2020

LAMMPS (20 Apr 2018)
OMP_NUM_THREADS environment is not set. Defaulting to 1 thread. (../comm.cpp:90)
  using 1 OpenMP thread(s) per MPI task
Lattice spacing in x,y,z = 1.82574 1.82574 1.82574
Created orthogonal box = (0 0 -0.182574) to (73.0297 73.0297 0.182574)
  64 by 34 by 1 MPI processor grid
Created 3200 atoms
  Time spent = 0.00795507 secs
Neighbor list info ...
  update every 1 steps, delay 0 steps, check yes
  max neighbors/atom: 2000, page size: 100000
  master list distance cutoff = 2.8
  ghost atom cutoff = 2.8
  binsize = 1.4, bins = 53 53 1
  1 neighbor lists, perpetual/occasional/extra = 1 0 0
  (1) pair lj/cut, perpetual
      attributes: half, newton on
      pair build: half/bin/atomonly/newton
      stencil: half/bin/2d/newton
      bin: standard
Setting up Verlet run ...
  Unit style    : lj
  Current step  : 0
  Time step     : 0.005
Per MPI rank memory allocation (min/avg/max) = 2.702 | 2.797 | 2.952 Mbytes
Step Temp E_pair E_mol TotEng Press 
       0            1     -1.56492            0   -0.5652325   -1.5346995 
    1000    1.0063515   -1.5732592            0  -0.56722209    1.0061204 
    2000   0.95792094   -1.5781469            0  -0.62052531   0.96571772 
    3000   0.98401573    -1.588743            0  -0.60503472   0.97094222 
    4000   0.99740124   -1.5757024            0  -0.57861287   0.99998732 
    5000    1.0348886   -1.6022633            0  -0.56769811   0.97795086 
Loop time of 2.09893 on 2176 procs for 5000 steps with 3200 atoms

Performance: 1029094.632 tau/day, 2382.164 timesteps/s
97.6% CPU use with 2176 MPI tasks x 1 OpenMP threads

MPI task timing breakdown:
Section |  min time  |  avg time  |  max time  |%varavg| %total
---------------------------------------------------------------
Pair    | 0.011931   | 0.014503   | 0.018643   |   0.6 |  0.69
Neigh   | 0.0047102  | 0.0054152  | 0.008075   |   0.6 |  0.26
Comm    | 0.66579    | 0.87034    | 1.1429     |  11.9 | 41.47
Output  | 0.0029571  | 0.0032372  | 0.003366   |   0.1 |  0.15
Modify  | 0.030829   | 0.033446   | 0.043719   |   0.6 |  1.59
Other   |            | 1.172      |            |       | 55.84

Nlocal:    1.47059 ave 4 max 0 min
Histogram: 156 0 945 0 0 972 0 101 0 2
Nghost:    29.7891 ave 39 max 22 min
Histogram: 19 78 286 246 701 556 148 126 15 1
Neighs:    10.324 ave 33 max 0 min
Histogram: 178 392 523 392 399 200 61 27 1 3

Total # of neighbors = 22465
Ave neighs/atom = 7.02031
Neighbor list builds = 601
Dangerous builds = 0
Setting up Verlet run ...
  Unit style    : lj
  Current step  : 0
  Time step     : 0.005
Per MPI rank memory allocation (min/avg/max) = 3.327 | 3.327 | 3.327 Mbytes
Step Temp c_vacf[4] v_vacf 
       0    1.0348886    2.0691304            0 
    5000      1.01618  0.010970342    0.3062452 
   10000    1.0210865 0.0018251732    0.3939561 
   15000    1.0201407 -0.0051204578   0.50191967 
   20000    1.0169872  0.032935727   0.54134779 
   25000    1.0117798  -0.01580966     0.615112 
   30000    1.0284167 -0.0089673686   0.71447644 
   35000    1.0072394 -0.027346896   0.70401385 
   40000    1.0180797 -0.024551015   0.74660961 
   45000    1.0221593 -0.0059135592   0.75865906 
   50000    1.0150177  -0.04225538   0.87981449 
   55000    1.0190131 -0.039301263   0.91325887 
   60000    1.0153908  0.068561184   0.90266577 
Loop time of 35.5835 on 2176 procs for 60000 steps with 3200 atoms

Performance: 728428.249 tau/day, 1686.177 timesteps/s
98.3% CPU use with 2176 MPI tasks x 1 OpenMP threads

MPI task timing breakdown:
Section |  min time  |  avg time  |  max time  |%varavg| %total
---------------------------------------------------------------
Pair    | 0.16607    | 0.17434    | 0.23665    |   1.9 |  0.49
Neigh   | 0.065114   | 0.069871   | 0.10572    |   2.1 |  0.20
Comm    | 7.8794     | 8.8964     | 10.814     |  15.6 | 25.00
Output  | 0.018049   | 0.020948   | 0.024205   |   1.0 |  0.06
Modify  | 16.529     | 18.422     | 19.492     |  11.2 | 51.77
Other   |            | 8          |            |       | 22.48

Nlocal:    1.47059 ave 4 max 0 min
Histogram: 157 0 936 0 0 987 0 94 0 2
Nghost:    29.9081 ave 38 max 20 min
Histogram: 9 24 120 260 239 579 567 278 84 16
Neighs:    10.284 ave 33 max 0 min
Histogram: 171 403 492 438 388 205 50 19 8 2

Total # of neighbors = 22378
Ave neighs/atom = 6.99313
Neighbor list builds = 7770
Dangerous builds = 0
Total wall time: 0:00:37
endTime:Mon Nov 16 03:24:57 PST 2020


Starting job in lowerRouterStall policy..
startTime:Mon Nov 16 03:24:57 PST 2020

LAMMPS (20 Apr 2018)
OMP_NUM_THREADS environment is not set. Defaulting to 1 thread. (../comm.cpp:90)
  using 1 OpenMP thread(s) per MPI task
Lattice spacing in x,y,z = 1.82574 1.82574 1.82574
Created orthogonal box = (0 0 -0.182574) to (73.0297 73.0297 0.182574)
  64 by 34 by 1 MPI processor grid
Created 3200 atoms
  Time spent = 0.00856113 secs
Neighbor list info ...
  update every 1 steps, delay 0 steps, check yes
  max neighbors/atom: 2000, page size: 100000
  master list distance cutoff = 2.8
  ghost atom cutoff = 2.8
  binsize = 1.4, bins = 53 53 1
  1 neighbor lists, perpetual/occasional/extra = 1 0 0
  (1) pair lj/cut, perpetual
      attributes: half, newton on
      pair build: half/bin/atomonly/newton
      stencil: half/bin/2d/newton
      bin: standard
Setting up Verlet run ...
  Unit style    : lj
  Current step  : 0
  Time step     : 0.005
Per MPI rank memory allocation (min/avg/max) = 2.702 | 2.797 | 2.952 Mbytes
Step Temp E_pair E_mol TotEng Press 
       0            1     -1.56492            0   -0.5652325   -1.5346995 
    1000    1.0063515   -1.5732592            0  -0.56722209    1.0061204 
    2000   0.95792094   -1.5781469            0  -0.62052531   0.96571772 
    3000   0.98401573    -1.588743            0  -0.60503472   0.97094222 
    4000   0.99740124   -1.5757024            0  -0.57861287   0.99998732 
    5000    1.0348886   -1.6022633            0  -0.56769811   0.97795086 
Loop time of 1.75273 on 2176 procs for 5000 steps with 3200 atoms

Performance: 1232361.707 tau/day, 2852.689 timesteps/s
97.0% CPU use with 2176 MPI tasks x 1 OpenMP threads

MPI task timing breakdown:
Section |  min time  |  avg time  |  max time  |%varavg| %total
---------------------------------------------------------------
Pair    | 0.012081   | 0.014595   | 0.020861   |   0.6 |  0.83
Neigh   | 0.0047412  | 0.005389   | 0.0081658  |   0.6 |  0.31
Comm    | 0.60779    | 0.71542    | 1.0027     |   8.0 | 40.82
Output  | 0.0042663  | 0.0044143  | 0.0045333  |   0.1 |  0.25
Modify  | 0.030788   | 0.033342   | 0.04301    |   0.6 |  1.90
Other   |            | 0.9796     |            |       | 55.89

Nlocal:    1.47059 ave 4 max 0 min
Histogram: 156 0 945 0 0 972 0 101 0 2
Nghost:    29.7891 ave 39 max 22 min
Histogram: 19 78 286 246 701 556 148 126 15 1
Neighs:    10.324 ave 33 max 0 min
Histogram: 178 392 523 392 399 200 61 27 1 3

Total # of neighbors = 22465
Ave neighs/atom = 7.02031
Neighbor list builds = 601
Dangerous builds = 0
Setting up Verlet run ...
  Unit style    : lj
  Current step  : 0
  Time step     : 0.005
Per MPI rank memory allocation (min/avg/max) = 3.327 | 3.327 | 3.327 Mbytes
Step Temp c_vacf[4] v_vacf 
       0    1.0348886    2.0691304            0 
    5000      1.01618  0.010970342    0.3062452 
   10000    1.0210865 0.0018251732    0.3939561 
   15000    1.0201407 -0.0051204578   0.50191967 
   20000    1.0169872  0.032935727   0.54134779 
   25000    1.0117798  -0.01580966     0.615112 
   30000    1.0284167 -0.0089673686   0.71447644 
   35000    1.0072394 -0.027346896   0.70401385 
   40000    1.0180797 -0.024551015   0.74660961 
   45000    1.0221593 -0.0059135592   0.75865906 
   50000    1.0150177  -0.04225538   0.87981449 
   55000    1.0190131 -0.039301263   0.91325887 
   60000    1.0153908  0.068561184   0.90266577 
Loop time of 34.2536 on 2176 procs for 60000 steps with 3200 atoms

Performance: 756708.168 tau/day, 1751.639 timesteps/s
98.2% CPU use with 2176 MPI tasks x 1 OpenMP threads

MPI task timing breakdown:
Section |  min time  |  avg time  |  max time  |%varavg| %total
---------------------------------------------------------------
Pair    | 0.16563    | 0.17544    | 0.25617    |   1.9 |  0.51
Neigh   | 0.064356   | 0.069853   | 0.10566    |   2.1 |  0.20
Comm    | 7.5131     | 8.6703     | 12.237     |  29.1 | 25.31
Output  | 0.01046    | 0.010763   | 0.011837   |   0.1 |  0.03
Modify  | 14.456     | 18.092     | 19.228     |  20.1 | 52.82
Other   |            | 7.235      |            |       | 21.12

Nlocal:    1.47059 ave 4 max 0 min
Histogram: 157 0 936 0 0 987 0 94 0 2
Nghost:    29.9081 ave 38 max 20 min
Histogram: 9 24 120 260 239 579 567 278 84 16
Neighs:    10.284 ave 33 max 0 min
Histogram: 171 403 492 438 388 205 50 19 8 2

Total # of neighbors = 22378
Ave neighs/atom = 6.99313
Neighbor list builds = 7770
Dangerous builds = 0
Total wall time: 0:00:36
endTime:Mon Nov 16 03:25:41 PST 2020


Starting job in fewerSwitch policy..
startTime:Mon Nov 16 03:25:41 PST 2020

LAMMPS (20 Apr 2018)
OMP_NUM_THREADS environment is not set. Defaulting to 1 thread. (../comm.cpp:90)
  using 1 OpenMP thread(s) per MPI task
Lattice spacing in x,y,z = 1.82574 1.82574 1.82574
Created orthogonal box = (0 0 -0.182574) to (73.0297 73.0297 0.182574)
  64 by 34 by 1 MPI processor grid
Created 3200 atoms
  Time spent = 0.00803804 secs
Neighbor list info ...
  update every 1 steps, delay 0 steps, check yes
  max neighbors/atom: 2000, page size: 100000
  master list distance cutoff = 2.8
  ghost atom cutoff = 2.8
  binsize = 1.4, bins = 53 53 1
  1 neighbor lists, perpetual/occasional/extra = 1 0 0
  (1) pair lj/cut, perpetual
      attributes: half, newton on
      pair build: half/bin/atomonly/newton
      stencil: half/bin/2d/newton
      bin: standard
Setting up Verlet run ...
  Unit style    : lj
  Current step  : 0
  Time step     : 0.005
Per MPI rank memory allocation (min/avg/max) = 2.702 | 2.797 | 2.952 Mbytes
Step Temp E_pair E_mol TotEng Press 
       0            1     -1.56492            0   -0.5652325   -1.5346995 
    1000    1.0063515   -1.5732592            0  -0.56722209    1.0061204 
    2000   0.95792094   -1.5781469            0  -0.62052531   0.96571772 
    3000   0.98401573    -1.588743            0  -0.60503472   0.97094222 
    4000   0.99740124   -1.5757024            0  -0.57861287   0.99998732 
    5000    1.0348886   -1.6022633            0  -0.56769811   0.97795086 
Loop time of 1.90687 on 2176 procs for 5000 steps with 3200 atoms

Performance: 1132748.132 tau/day, 2622.102 timesteps/s
97.3% CPU use with 2176 MPI tasks x 1 OpenMP threads

MPI task timing breakdown:
Section |  min time  |  avg time  |  max time  |%varavg| %total
---------------------------------------------------------------
Pair    | 0.011956   | 0.014511   | 0.020671   |   0.6 |  0.76
Neigh   | 0.0047264  | 0.0053985  | 0.0086653  |   0.6 |  0.28
Comm    | 0.64348    | 0.75607    | 1.0226     |   9.3 | 39.65
Output  | 0.0027304  | 0.0029174  | 0.0030327  |   0.1 |  0.15
Modify  | 0.030959   | 0.033428   | 0.042351   |   0.6 |  1.75
Other   |            | 1.095      |            |       | 57.40

Nlocal:    1.47059 ave 4 max 0 min
Histogram: 156 0 945 0 0 972 0 101 0 2
Nghost:    29.7891 ave 39 max 22 min
Histogram: 19 78 286 246 701 556 148 126 15 1
Neighs:    10.324 ave 33 max 0 min
Histogram: 178 392 523 392 399 200 61 27 1 3

Total # of neighbors = 22465
Ave neighs/atom = 7.02031
Neighbor list builds = 601
Dangerous builds = 0
Setting up Verlet run ...
  Unit style    : lj
  Current step  : 0
  Time step     : 0.005
Per MPI rank memory allocation (min/avg/max) = 3.327 | 3.327 | 3.327 Mbytes
Step Temp c_vacf[4] v_vacf 
       0    1.0348886    2.0691304            0 
    5000      1.01618  0.010970342    0.3062452 
   10000    1.0210865 0.0018251732    0.3939561 
   15000    1.0201407 -0.0051204578   0.50191967 
   20000    1.0169872  0.032935727   0.54134779 
   25000    1.0117798  -0.01580966     0.615112 
   30000    1.0284167 -0.0089673686   0.71447644 
   35000    1.0072394 -0.027346896   0.70401385 
   40000    1.0180797 -0.024551015   0.74660961 
   45000    1.0221593 -0.0059135592   0.75865906 
   50000    1.0150177  -0.04225538   0.87981449 
   55000    1.0190131 -0.039301263   0.91325887 
   60000    1.0153908  0.068561184   0.90266577 
Loop time of 35.8221 on 2176 procs for 60000 steps with 3200 atoms

Performance: 723575.721 tau/day, 1674.944 timesteps/s
98.3% CPU use with 2176 MPI tasks x 1 OpenMP threads

MPI task timing breakdown:
Section |  min time  |  avg time  |  max time  |%varavg| %total
---------------------------------------------------------------
Pair    | 0.16599    | 0.17462    | 0.25571    |   1.8 |  0.49
Neigh   | 0.064263   | 0.069876   | 0.10886    |   2.2 |  0.20
Comm    | 7.7777     | 9.0114     | 12.169     |  30.3 | 25.16
Output  | 0.011065   | 0.011452   | 0.012364   |   0.2 |  0.03
Modify  | 16.071     | 19.223     | 20.452     |  20.8 | 53.66
Other   |            | 7.332      |            |       | 20.47

Nlocal:    1.47059 ave 4 max 0 min
Histogram: 157 0 936 0 0 987 0 94 0 2
Nghost:    29.9081 ave 38 max 20 min
Histogram: 9 24 120 260 239 579 567 278 84 16
Neighs:    10.284 ave 33 max 0 min
Histogram: 171 403 492 438 388 205 50 19 8 2

Total # of neighbors = 22378
Ave neighs/atom = 6.99313
Neighbor list builds = 7770
Dangerous builds = 0
Total wall time: 0:00:37
endTime:Mon Nov 16 03:26:27 PST 2020


Starting job in random policy..
startTime:Mon Nov 16 03:26:27 PST 2020

LAMMPS (20 Apr 2018)
OMP_NUM_THREADS environment is not set. Defaulting to 1 thread. (../comm.cpp:90)
  using 1 OpenMP thread(s) per MPI task
Lattice spacing in x,y,z = 1.82574 1.82574 1.82574
Created orthogonal box = (0 0 -0.182574) to (73.0297 73.0297 0.182574)
  64 by 34 by 1 MPI processor grid
Created 3200 atoms
  Time spent = 0.018831 secs
Neighbor list info ...
  update every 1 steps, delay 0 steps, check yes
  max neighbors/atom: 2000, page size: 100000
  master list distance cutoff = 2.8
  ghost atom cutoff = 2.8
  binsize = 1.4, bins = 53 53 1
  1 neighbor lists, perpetual/occasional/extra = 1 0 0
  (1) pair lj/cut, perpetual
      attributes: half, newton on
      pair build: half/bin/atomonly/newton
      stencil: half/bin/2d/newton
      bin: standard
Setting up Verlet run ...
  Unit style    : lj
  Current step  : 0
  Time step     : 0.005
Per MPI rank memory allocation (min/avg/max) = 2.702 | 2.797 | 2.952 Mbytes
Step Temp E_pair E_mol TotEng Press 
       0            1     -1.56492            0   -0.5652325   -1.5346995 
    1000    1.0063515   -1.5732592            0  -0.56722209    1.0061204 
    2000   0.95792094   -1.5781469            0  -0.62052531   0.96571772 
    3000   0.98401573    -1.588743            0  -0.60503472   0.97094222 
    4000   0.99740124   -1.5757024            0  -0.57861287   0.99998732 
    5000    1.0348886   -1.6022633            0  -0.56769811   0.97795086 
Loop time of 3.8362 on 2176 procs for 5000 steps with 3200 atoms

Performance: 563056.626 tau/day, 1303.372 timesteps/s
98.5% CPU use with 2176 MPI tasks x 1 OpenMP threads

MPI task timing breakdown:
Section |  min time  |  avg time  |  max time  |%varavg| %total
---------------------------------------------------------------
Pair    | 0.012007   | 0.014582   | 0.021922   |   0.7 |  0.38
Neigh   | 0.0046849  | 0.0054639  | 0.008641   |   0.6 |  0.14
Comm    | 0.85625    | 1.2249     | 2.0976     |  24.8 | 31.93
Output  | 0.006068   | 0.0078296  | 0.0088749  |   0.5 |  0.20
Modify  | 0.030933   | 0.033618   | 0.046456   |   0.9 |  0.88
Other   |            | 2.55       |            |       | 66.47

Nlocal:    1.47059 ave 4 max 0 min
Histogram: 156 0 945 0 0 972 0 101 0 2
Nghost:    29.7891 ave 39 max 22 min
Histogram: 19 78 286 246 701 556 148 126 15 1
Neighs:    10.324 ave 33 max 0 min
Histogram: 178 392 523 392 399 200 61 27 1 3

Total # of neighbors = 22465
Ave neighs/atom = 7.02031
Neighbor list builds = 601
Dangerous builds = 0
Setting up Verlet run ...
  Unit style    : lj
  Current step  : 0
  Time step     : 0.005
Per MPI rank memory allocation (min/avg/max) = 3.327 | 3.327 | 3.327 Mbytes
Step Temp c_vacf[4] v_vacf 
       0    1.0348886    2.0691304            0 
    5000      1.01618  0.010970342    0.3062452 
   10000    1.0210865 0.0018251732    0.3939561 
   15000    1.0201407 -0.0051204578   0.50191967 
   20000    1.0169872  0.032935727   0.54134779 
   25000    1.0117798  -0.01580966     0.615112 
   30000    1.0284167 -0.0089673686   0.71447644 
   35000    1.0072394 -0.027346896   0.70401385 
   40000    1.0180797 -0.024551015   0.74660961 
   45000    1.0221593 -0.0059135592   0.75865906 
   50000    1.0150177  -0.04225538   0.87981449 
   55000    1.0190131 -0.039301263   0.91325887 
   60000    1.0153908  0.068561184   0.90266577 
Loop time of 41.2051 on 2176 procs for 60000 steps with 3200 atoms

Performance: 629048.218 tau/day, 1456.130 timesteps/s
98.4% CPU use with 2176 MPI tasks x 1 OpenMP threads

MPI task timing breakdown:
Section |  min time  |  avg time  |  max time  |%varavg| %total
---------------------------------------------------------------
Pair    | 0.16533    | 0.17479    | 0.26455    |   2.0 |  0.42
Neigh   | 0.064272   | 0.070031   | 0.10813    |   2.2 |  0.17
Comm    | 8.0841     | 9.836      | 15.123     |  45.2 | 23.87
Output  | 0.010605   | 0.010888   | 0.011865   |   0.1 |  0.03
Modify  | 17.464     | 22.846     | 24.57      |  29.7 | 55.44
Other   |            | 8.267      |            |       | 20.06

Nlocal:    1.47059 ave 4 max 0 min
Histogram: 157 0 936 0 0 987 0 94 0 2
Nghost:    29.9081 ave 38 max 20 min
Histogram: 9 24 120 260 239 579 567 278 84 16
Neighs:    10.284 ave 33 max 0 min
Histogram: 171 403 492 438 388 205 50 19 8 2

Total # of neighbors = 22378
Ave neighs/atom = 6.99313
Neighbor list builds = 7770
Dangerous builds = 0
Total wall time: 0:00:45
endTime:Mon Nov 16 03:27:24 PST 2020


Starting job in antinedd policy..
startTime:Mon Nov 16 03:27:24 PST 2020

LAMMPS (20 Apr 2018)
OMP_NUM_THREADS environment is not set. Defaulting to 1 thread. (../comm.cpp:90)
  using 1 OpenMP thread(s) per MPI task
Lattice spacing in x,y,z = 1.82574 1.82574 1.82574
Created orthogonal box = (0 0 -0.182574) to (73.0297 73.0297 0.182574)
  64 by 34 by 1 MPI processor grid
Created 3200 atoms
  Time spent = 0.00823402 secs
Neighbor list info ...
  update every 1 steps, delay 0 steps, check yes
  max neighbors/atom: 2000, page size: 100000
  master list distance cutoff = 2.8
  ghost atom cutoff = 2.8
  binsize = 1.4, bins = 53 53 1
  1 neighbor lists, perpetual/occasional/extra = 1 0 0
  (1) pair lj/cut, perpetual
      attributes: half, newton on
      pair build: half/bin/atomonly/newton
      stencil: half/bin/2d/newton
      bin: standard
Setting up Verlet run ...
  Unit style    : lj
  Current step  : 0
  Time step     : 0.005
Per MPI rank memory allocation (min/avg/max) = 2.702 | 2.797 | 2.952 Mbytes
Step Temp E_pair E_mol TotEng Press 
       0            1     -1.56492            0   -0.5652325   -1.5346995 
    1000    1.0063515   -1.5732592            0  -0.56722209    1.0061204 
    2000   0.95792094   -1.5781469            0  -0.62052531   0.96571772 
    3000   0.98401573    -1.588743            0  -0.60503472   0.97094222 
    4000   0.99740124   -1.5757024            0  -0.57861287   0.99998732 
    5000    1.0348886   -1.6022633            0  -0.56769811   0.97795086 
Loop time of 2.23888 on 2176 procs for 5000 steps with 3200 atoms

Performance: 964768.959 tau/day, 2233.261 timesteps/s
97.6% CPU use with 2176 MPI tasks x 1 OpenMP threads

MPI task timing breakdown:
Section |  min time  |  avg time  |  max time  |%varavg| %total
---------------------------------------------------------------
Pair    | 0.011994   | 0.014525   | 0.020607   |   0.6 |  0.65
Neigh   | 0.0047224  | 0.005402   | 0.0084248  |   0.6 |  0.24
Comm    | 0.62475    | 0.80294    | 1.6371     |  25.6 | 35.86
Output  | 0.0036652  | 0.0048498  | 0.0050578  |   0.3 |  0.22
Modify  | 0.030804   | 0.033484   | 0.046952   |   0.7 |  1.50
Other   |            | 1.378      |            |       | 61.53

Nlocal:    1.47059 ave 4 max 0 min
Histogram: 156 0 945 0 0 972 0 101 0 2
Nghost:    29.7891 ave 39 max 22 min
Histogram: 19 78 286 246 701 556 148 126 15 1
Neighs:    10.324 ave 33 max 0 min
Histogram: 178 392 523 392 399 200 61 27 1 3

Total # of neighbors = 22465
Ave neighs/atom = 7.02031
Neighbor list builds = 601
Dangerous builds = 0
Setting up Verlet run ...
  Unit style    : lj
  Current step  : 0
  Time step     : 0.005
Per MPI rank memory allocation (min/avg/max) = 3.327 | 3.327 | 3.327 Mbytes
Step Temp c_vacf[4] v_vacf 
       0    1.0348886    2.0691304            0 
    5000      1.01618  0.010970342    0.3062452 
   10000    1.0210865 0.0018251732    0.3939561 
   15000    1.0201407 -0.0051204578   0.50191967 
   20000    1.0169872  0.032935727   0.54134779 
   25000    1.0117798  -0.01580966     0.615112 
   30000    1.0284167 -0.0089673686   0.71447644 
   35000    1.0072394 -0.027346896   0.70401385 
   40000    1.0180797 -0.024551015   0.74660961 
   45000    1.0221593 -0.0059135592   0.75865906 
   50000    1.0150177  -0.04225538   0.87981449 
   55000    1.0190131 -0.039301263   0.91325887 
   60000    1.0153908  0.068561184   0.90266577 
Loop time of 42.4075 on 2176 procs for 60000 steps with 3200 atoms

Performance: 611212.246 tau/day, 1414.843 timesteps/s
98.4% CPU use with 2176 MPI tasks x 1 OpenMP threads

MPI task timing breakdown:
Section |  min time  |  avg time  |  max time  |%varavg| %total
---------------------------------------------------------------
Pair    | 0.16632    | 0.17486    | 0.25474    |   2.1 |  0.41
Neigh   | 0.06459    | 0.06994    | 0.10728    |   2.2 |  0.16
Comm    | 8.1743     | 10.139     | 19.421     |  85.6 | 23.91
Output  | 0.010461   | 0.010833   | 0.011748   |   0.2 |  0.03
Modify  | 15.032     | 24.408     | 26.408     |  55.1 | 57.56
Other   |            | 7.605      |            |       | 17.93

Nlocal:    1.47059 ave 4 max 0 min
Histogram: 157 0 936 0 0 987 0 94 0 2
Nghost:    29.9081 ave 38 max 20 min
Histogram: 9 24 120 260 239 579 567 278 84 16
Neighs:    10.284 ave 33 max 0 min
Histogram: 171 403 492 438 388 205 50 19 8 2

Total # of neighbors = 22378
Ave neighs/atom = 6.99313
Neighbor list builds = 7770
Dangerous builds = 0
Total wall time: 0:00:44
endTime:Mon Nov 16 03:28:19 PST 2020


Starting job in neddNoCong policy..
startTime:Mon Nov 16 03:28:24 PST 2020

LAMMPS (20 Apr 2018)
OMP_NUM_THREADS environment is not set. Defaulting to 1 thread. (../comm.cpp:90)
  using 1 OpenMP thread(s) per MPI task
Lattice spacing in x,y,z = 1.82574 1.82574 1.82574
Created orthogonal box = (0 0 -0.182574) to (73.0297 73.0297 0.182574)
  64 by 34 by 1 MPI processor grid
Created 3200 atoms
  Time spent = 0.00419593 secs
Neighbor list info ...
  update every 1 steps, delay 0 steps, check yes
  max neighbors/atom: 2000, page size: 100000
  master list distance cutoff = 2.8
  ghost atom cutoff = 2.8
  binsize = 1.4, bins = 53 53 1
  1 neighbor lists, perpetual/occasional/extra = 1 0 0
  (1) pair lj/cut, perpetual
      attributes: half, newton on
      pair build: half/bin/atomonly/newton
      stencil: half/bin/2d/newton
      bin: standard
Setting up Verlet run ...
  Unit style    : lj
  Current step  : 0
  Time step     : 0.005
Per MPI rank memory allocation (min/avg/max) = 2.702 | 2.797 | 2.952 Mbytes
Step Temp E_pair E_mol TotEng Press 
       0            1     -1.56492            0   -0.5652325   -1.5346995 
    1000    1.0063515   -1.5732592            0  -0.56722209    1.0061204 
    2000   0.95792094   -1.5781469            0  -0.62052531   0.96571772 
    3000   0.98401573    -1.588743            0  -0.60503472   0.97094222 
    4000   0.99740124   -1.5757024            0  -0.57861287   0.99998732 
    5000    1.0348886   -1.6022633            0  -0.56769811   0.97795086 
Loop time of 1.49025 on 2176 procs for 5000 steps with 3200 atoms

Performance: 1449420.424 tau/day, 3355.140 timesteps/s
96.8% CPU use with 2176 MPI tasks x 1 OpenMP threads

MPI task timing breakdown:
Section |  min time  |  avg time  |  max time  |%varavg| %total
---------------------------------------------------------------
Pair    | 0.012019   | 0.01454    | 0.019538   |   0.6 |  0.98
Neigh   | 0.0046914  | 0.0053791  | 0.0080702  |   0.6 |  0.36
Comm    | 0.59135    | 0.66379    | 0.77828    |   3.8 | 44.54
Output  | 0.0023382  | 0.002526   | 0.0026021  |   0.1 |  0.17
Modify  | 0.030825   | 0.033231   | 0.041682   |   0.6 |  2.23
Other   |            | 0.7708     |            |       | 51.72

Nlocal:    1.47059 ave 4 max 0 min
Histogram: 156 0 945 0 0 972 0 101 0 2
Nghost:    29.7891 ave 39 max 22 min
Histogram: 19 78 286 246 701 556 148 126 15 1
Neighs:    10.324 ave 33 max 0 min
Histogram: 178 392 523 392 399 200 61 27 1 3

Total # of neighbors = 22465
Ave neighs/atom = 7.02031
Neighbor list builds = 601
Dangerous builds = 0
Setting up Verlet run ...
  Unit style    : lj
  Current step  : 0
  Time step     : 0.005
Per MPI rank memory allocation (min/avg/max) = 3.327 | 3.327 | 3.327 Mbytes
Step Temp c_vacf[4] v_vacf 
       0    1.0348886    2.0691304            0 
    5000      1.01618  0.010970342    0.3062452 
   10000    1.0210865 0.0018251732    0.3939561 
   15000    1.0201407 -0.0051204578   0.50191967 
   20000    1.0169872  0.032935727   0.54134779 
   25000    1.0117798  -0.01580966     0.615112 
   30000    1.0284167 -0.0089673686   0.71447644 
   35000    1.0072394 -0.027346896   0.70401385 
   40000    1.0180797 -0.024551015   0.74660961 
   45000    1.0221593 -0.0059135592   0.75865906 
   50000    1.0150177  -0.04225538   0.87981449 
   55000    1.0190131 -0.039301263   0.91325887 
   60000    1.0153908  0.068561184   0.90266577 
Loop time of 27.8656 on 2176 procs for 60000 steps with 3200 atoms

Performance: 930179.061 tau/day, 2153.192 timesteps/s
97.8% CPU use with 2176 MPI tasks x 1 OpenMP threads

MPI task timing breakdown:
Section |  min time  |  avg time  |  max time  |%varavg| %total
---------------------------------------------------------------
Pair    | 0.16584    | 0.17475    | 0.24031    |   1.6 |  0.63
Neigh   | 0.064792   | 0.069566   | 0.10784    |   2.1 |  0.25
Comm    | 7.1544     | 7.8263     | 9.2661     |  13.5 | 28.09
Output  | 0.010185   | 0.010572   | 0.011418   |   0.1 |  0.04
Modify  | 12.397     | 13.82      | 14.496     |  10.2 | 49.60
Other   |            | 5.964      |            |       | 21.40

Nlocal:    1.47059 ave 4 max 0 min
Histogram: 157 0 936 0 0 987 0 94 0 2
Nghost:    29.9081 ave 38 max 20 min
Histogram: 9 24 120 260 239 579 567 278 84 16
Neighs:    10.284 ave 33 max 0 min
Histogram: 171 403 492 438 388 205 50 19 8 2

Total # of neighbors = 22378
Ave neighs/atom = 6.99313
Neighbor list builds = 7770
Dangerous builds = 0
Total wall time: 0:00:29
endTime:Mon Nov 16 03:29:04 PST 2020


Starting job in fewerNoCong policy..
startTime:Mon Nov 16 03:29:04 PST 2020

LAMMPS (20 Apr 2018)
OMP_NUM_THREADS environment is not set. Defaulting to 1 thread. (../comm.cpp:90)
  using 1 OpenMP thread(s) per MPI task
Lattice spacing in x,y,z = 1.82574 1.82574 1.82574
Created orthogonal box = (0 0 -0.182574) to (73.0297 73.0297 0.182574)
  64 by 34 by 1 MPI processor grid
Created 3200 atoms
  Time spent = 0.00881696 secs
Neighbor list info ...
  update every 1 steps, delay 0 steps, check yes
  max neighbors/atom: 2000, page size: 100000
  master list distance cutoff = 2.8
  ghost atom cutoff = 2.8
  binsize = 1.4, bins = 53 53 1
  1 neighbor lists, perpetual/occasional/extra = 1 0 0
  (1) pair lj/cut, perpetual
      attributes: half, newton on
      pair build: half/bin/atomonly/newton
      stencil: half/bin/2d/newton
      bin: standard
Setting up Verlet run ...
  Unit style    : lj
  Current step  : 0
  Time step     : 0.005
Per MPI rank memory allocation (min/avg/max) = 2.702 | 2.797 | 2.952 Mbytes
Step Temp E_pair E_mol TotEng Press 
       0            1     -1.56492            0   -0.5652325   -1.5346995 
    1000    1.0063515   -1.5732592            0  -0.56722209    1.0061204 
    2000   0.95792094   -1.5781469            0  -0.62052531   0.96571772 
    3000   0.98401573    -1.588743            0  -0.60503472   0.97094222 
    4000   0.99740124   -1.5757024            0  -0.57861287   0.99998732 
    5000    1.0348886   -1.6022633            0  -0.56769811   0.97795086 
Loop time of 1.51501 on 2176 procs for 5000 steps with 3200 atoms

Performance: 1425730.715 tau/day, 3300.303 timesteps/s
96.9% CPU use with 2176 MPI tasks x 1 OpenMP threads

MPI task timing breakdown:
Section |  min time  |  avg time  |  max time  |%varavg| %total
---------------------------------------------------------------
Pair    | 0.012007   | 0.014559   | 0.019052   |   0.6 |  0.96
Neigh   | 0.004669   | 0.005379   | 0.0080285  |   0.6 |  0.36
Comm    | 0.59616    | 0.66478    | 0.82871    |   5.2 | 43.88
Output  | 0.0027239  | 0.0029125  | 0.0030441  |   0.1 |  0.19
Modify  | 0.030734   | 0.033229   | 0.041725   |   0.6 |  2.19
Other   |            | 0.7942     |            |       | 52.42

Nlocal:    1.47059 ave 4 max 0 min
Histogram: 156 0 945 0 0 972 0 101 0 2
Nghost:    29.7891 ave 39 max 22 min
Histogram: 19 78 286 246 701 556 148 126 15 1
Neighs:    10.324 ave 33 max 0 min
Histogram: 178 392 523 392 399 200 61 27 1 3

Total # of neighbors = 22465
Ave neighs/atom = 7.02031
Neighbor list builds = 601
Dangerous builds = 0
Setting up Verlet run ...
  Unit style    : lj
  Current step  : 0
  Time step     : 0.005
Per MPI rank memory allocation (min/avg/max) = 3.327 | 3.327 | 3.327 Mbytes
Step Temp c_vacf[4] v_vacf 
       0    1.0348886    2.0691304            0 
    5000      1.01618  0.010970342    0.3062452 
   10000    1.0210865 0.0018251732    0.3939561 
   15000    1.0201407 -0.0051204578   0.50191967 
   20000    1.0169872  0.032935727   0.54134779 
   25000    1.0117798  -0.01580966     0.615112 
   30000    1.0284167 -0.0089673686   0.71447644 
   35000    1.0072394 -0.027346896   0.70401385 
   40000    1.0180797 -0.024551015   0.74660961 
   45000    1.0221593 -0.0059135592   0.75865906 
   50000    1.0150177  -0.04225538   0.87981449 
   55000    1.0190131 -0.039301263   0.91325887 
   60000    1.0153908  0.068561184   0.90266577 
Loop time of 29.3879 on 2176 procs for 60000 steps with 3200 atoms

Performance: 881996.974 tau/day, 2041.660 timesteps/s
97.9% CPU use with 2176 MPI tasks x 1 OpenMP threads

MPI task timing breakdown:
Section |  min time  |  avg time  |  max time  |%varavg| %total
---------------------------------------------------------------
Pair    | 0.16574    | 0.17518    | 0.23831    |   1.7 |  0.60
Neigh   | 0.064852   | 0.069688   | 0.10568    |   2.1 |  0.24
Comm    | 7.3259     | 8.0091     | 10.094     |  17.4 | 27.25
Output  | 0.010301   | 0.010545   | 0.01136    |   0.1 |  0.04
Modify  | 12.822     | 14.936     | 15.607     |  12.7 | 50.82
Other   |            | 6.188      |            |       | 21.05

Nlocal:    1.47059 ave 4 max 0 min
Histogram: 157 0 936 0 0 987 0 94 0 2
Nghost:    29.9081 ave 38 max 20 min
Histogram: 9 24 120 260 239 579 567 278 84 16
Neighs:    10.284 ave 33 max 0 min
Histogram: 171 403 492 438 388 205 50 19 8 2

Total # of neighbors = 22378
Ave neighs/atom = 6.99313
Neighbor list builds = 7770
Dangerous builds = 0
Total wall time: 0:00:30
endTime:Mon Nov 16 03:29:43 PST 2020


====================
iteration 1
Starting job in nedd policy..
startTime:Mon Nov 16 03:32:12 PST 2020

LAMMPS (20 Apr 2018)
OMP_NUM_THREADS environment is not set. Defaulting to 1 thread. (../comm.cpp:90)
  using 1 OpenMP thread(s) per MPI task
Lattice spacing in x,y,z = 1.82574 1.82574 1.82574
Created orthogonal box = (0 0 -0.182574) to (73.0297 73.0297 0.182574)
  64 by 34 by 1 MPI processor grid
Created 3200 atoms
  Time spent = 0.00769091 secs
Neighbor list info ...
  update every 1 steps, delay 0 steps, check yes
  max neighbors/atom: 2000, page size: 100000
  master list distance cutoff = 2.8
  ghost atom cutoff = 2.8
  binsize = 1.4, bins = 53 53 1
  1 neighbor lists, perpetual/occasional/extra = 1 0 0
  (1) pair lj/cut, perpetual
      attributes: half, newton on
      pair build: half/bin/atomonly/newton
      stencil: half/bin/2d/newton
      bin: standard
Setting up Verlet run ...
  Unit style    : lj
  Current step  : 0
  Time step     : 0.005
Per MPI rank memory allocation (min/avg/max) = 2.702 | 2.797 | 2.952 Mbytes
Step Temp E_pair E_mol TotEng Press 
       0            1     -1.56492            0   -0.5652325   -1.5346995 
    1000    1.0063515   -1.5732592            0  -0.56722209    1.0061204 
    2000   0.95792094   -1.5781469            0  -0.62052531   0.96571772 
    3000   0.98401573    -1.588743            0  -0.60503472   0.97094222 
    4000   0.99740124   -1.5757024            0  -0.57861287   0.99998732 
    5000    1.0348886   -1.6022633            0  -0.56769811   0.97795086 
Loop time of 1.68563 on 2176 procs for 5000 steps with 3200 atoms

Performance: 1281420.178 tau/day, 2966.250 timesteps/s
97.0% CPU use with 2176 MPI tasks x 1 OpenMP threads

MPI task timing breakdown:
Section |  min time  |  avg time  |  max time  |%varavg| %total
---------------------------------------------------------------
Pair    | 0.011837   | 0.014491   | 0.019811   |   0.6 |  0.86
Neigh   | 0.0047252  | 0.005389   | 0.0081706  |   0.6 |  0.32
Comm    | 0.60902    | 0.71221    | 0.90209    |   6.4 | 42.25
Output  | 0.002851   | 0.0030406  | 0.0032122  |   0.1 |  0.18
Modify  | 0.030737   | 0.033385   | 0.041848   |   0.6 |  1.98
Other   |            | 0.9171     |            |       | 54.41

Nlocal:    1.47059 ave 4 max 0 min
Histogram: 156 0 945 0 0 972 0 101 0 2
Nghost:    29.7891 ave 39 max 22 min
Histogram: 19 78 286 246 701 556 148 126 15 1
Neighs:    10.324 ave 33 max 0 min
Histogram: 178 392 523 392 399 200 61 27 1 3

Total # of neighbors = 22465
Ave neighs/atom = 7.02031
Neighbor list builds = 601
Dangerous builds = 0
Setting up Verlet run ...
  Unit style    : lj
  Current step  : 0
  Time step     : 0.005
Per MPI rank memory allocation (min/avg/max) = 3.327 | 3.327 | 3.327 Mbytes
Step Temp c_vacf[4] v_vacf 
       0    1.0348886    2.0691304            0 
    5000      1.01618  0.010970342    0.3062452 
   10000    1.0210865 0.0018251732    0.3939561 
   15000    1.0201407 -0.0051204578   0.50191967 
   20000    1.0169872  0.032935727   0.54134779 
   25000    1.0117798  -0.01580966     0.615112 
   30000    1.0284167 -0.0089673686   0.71447644 
   35000    1.0072394 -0.027346896   0.70401385 
   40000    1.0180797 -0.024551015   0.74660961 
   45000    1.0221593 -0.0059135592   0.75865906 
   50000    1.0150177  -0.04225538   0.87981449 
   55000    1.0190131 -0.039301263   0.91325887 
   60000    1.0153908  0.068561184   0.90266577 
Loop time of 34.6483 on 2176 procs for 60000 steps with 3200 atoms

Performance: 748088.064 tau/day, 1731.685 timesteps/s
98.2% CPU use with 2176 MPI tasks x 1 OpenMP threads

MPI task timing breakdown:
Section |  min time  |  avg time  |  max time  |%varavg| %total
---------------------------------------------------------------
Pair    | 0.16585    | 0.17449    | 0.25023    |   1.8 |  0.50
Neigh   | 0.064767   | 0.070036   | 0.10527    |   2.2 |  0.20
Comm    | 7.7809     | 8.9219     | 11.395     |  25.0 | 25.75
Output  | 0.010472   | 0.010787   | 0.011895   |   0.1 |  0.03
Modify  | 15.77      | 18.201     | 19.332     |  17.5 | 52.53
Other   |            | 7.27       |            |       | 20.98

Nlocal:    1.47059 ave 4 max 0 min
Histogram: 157 0 936 0 0 987 0 94 0 2
Nghost:    29.9081 ave 38 max 20 min
Histogram: 9 24 120 260 239 579 567 278 84 16
Neighs:    10.284 ave 33 max 0 min
Histogram: 171 403 492 438 388 205 50 19 8 2

Total # of neighbors = 22378
Ave neighs/atom = 6.99313
Neighbor list builds = 7770
Dangerous builds = 0
Total wall time: 0:00:36
endTime:Mon Nov 16 03:33:03 PST 2020


Starting job in lowerRouterStall policy..
startTime:Mon Nov 16 03:33:04 PST 2020

LAMMPS (20 Apr 2018)
OMP_NUM_THREADS environment is not set. Defaulting to 1 thread. (../comm.cpp:90)
  using 1 OpenMP thread(s) per MPI task
Lattice spacing in x,y,z = 1.82574 1.82574 1.82574
Created orthogonal box = (0 0 -0.182574) to (73.0297 73.0297 0.182574)
  64 by 34 by 1 MPI processor grid
Created 3200 atoms
  Time spent = 0.00624704 secs
Neighbor list info ...
  update every 1 steps, delay 0 steps, check yes
  max neighbors/atom: 2000, page size: 100000
  master list distance cutoff = 2.8
  ghost atom cutoff = 2.8
  binsize = 1.4, bins = 53 53 1
  1 neighbor lists, perpetual/occasional/extra = 1 0 0
  (1) pair lj/cut, perpetual
      attributes: half, newton on
      pair build: half/bin/atomonly/newton
      stencil: half/bin/2d/newton
      bin: standard
Setting up Verlet run ...
  Unit style    : lj
  Current step  : 0
  Time step     : 0.005
Per MPI rank memory allocation (min/avg/max) = 2.702 | 2.797 | 2.952 Mbytes
Step Temp E_pair E_mol TotEng Press 
       0            1     -1.56492            0   -0.5652325   -1.5346995 
    1000    1.0063515   -1.5732592            0  -0.56722209    1.0061204 
    2000   0.95792094   -1.5781469            0  -0.62052531   0.96571772 
    3000   0.98401573    -1.588743            0  -0.60503472   0.97094222 
    4000   0.99740124   -1.5757024            0  -0.57861287   0.99998732 
    5000    1.0348886   -1.6022633            0  -0.56769811   0.97795086 
Loop time of 1.59058 on 2176 procs for 5000 steps with 3200 atoms

Performance: 1357992.517 tau/day, 3143.501 timesteps/s
96.7% CPU use with 2176 MPI tasks x 1 OpenMP threads

MPI task timing breakdown:
Section |  min time  |  avg time  |  max time  |%varavg| %total
---------------------------------------------------------------
Pair    | 0.012161   | 0.014573   | 0.0197     |   0.6 |  0.92
Neigh   | 0.0046873  | 0.0053945  | 0.0080335  |   0.6 |  0.34
Comm    | 0.6001     | 0.68016    | 0.85626    |   5.0 | 42.76
Output  | 0.0028992  | 0.0030822  | 0.0032675  |   0.1 |  0.19
Modify  | 0.030767   | 0.03328    | 0.042878   |   0.6 |  2.09
Other   |            | 0.8541     |            |       | 53.70

Nlocal:    1.47059 ave 4 max 0 min
Histogram: 156 0 945 0 0 972 0 101 0 2
Nghost:    29.7891 ave 39 max 22 min
Histogram: 19 78 286 246 701 556 148 126 15 1
Neighs:    10.324 ave 33 max 0 min
Histogram: 178 392 523 392 399 200 61 27 1 3

Total # of neighbors = 22465
Ave neighs/atom = 7.02031
Neighbor list builds = 601
Dangerous builds = 0
Setting up Verlet run ...
  Unit style    : lj
  Current step  : 0
  Time step     : 0.005
Per MPI rank memory allocation (min/avg/max) = 3.327 | 3.327 | 3.327 Mbytes
Step Temp c_vacf[4] v_vacf 
       0    1.0348886    2.0691304            0 
    5000      1.01618  0.010970342    0.3062452 
   10000    1.0210865 0.0018251732    0.3939561 
   15000    1.0201407 -0.0051204578   0.50191967 
   20000    1.0169872  0.032935727   0.54134779 
   25000    1.0117798  -0.01580966     0.615112 
   30000    1.0284167 -0.0089673686   0.71447644 
   35000    1.0072394 -0.027346896   0.70401385 
   40000    1.0180797 -0.024551015   0.74660961 
   45000    1.0221593 -0.0059135592   0.75865906 
   50000    1.0150177  -0.04225538   0.87981449 
   55000    1.0190131 -0.039301263   0.91325887 
   60000    1.0153908  0.068561184   0.90266577 
Loop time of 31.0103 on 2176 procs for 60000 steps with 3200 atoms

Performance: 835851.901 tau/day, 1934.842 timesteps/s
98.0% CPU use with 2176 MPI tasks x 1 OpenMP threads

MPI task timing breakdown:
Section |  min time  |  avg time  |  max time  |%varavg| %total
---------------------------------------------------------------
Pair    | 0.1654     | 0.17517    | 0.23686    |   1.7 |  0.56
Neigh   | 0.064459   | 0.069742   | 0.1039     |   2.1 |  0.22
Comm    | 7.3709     | 8.2509     | 10.925     |  20.0 | 26.61
Output  | 0.010139   | 0.010424   | 0.011271   |   0.1 |  0.03
Modify  | 13.155     | 15.865     | 16.686     |  14.4 | 51.16
Other   |            | 6.639      |            |       | 21.41

Nlocal:    1.47059 ave 4 max 0 min
Histogram: 157 0 936 0 0 987 0 94 0 2
Nghost:    29.9081 ave 38 max 20 min
Histogram: 9 24 120 260 239 579 567 278 84 16
Neighs:    10.284 ave 33 max 0 min
Histogram: 171 403 492 438 388 205 50 19 8 2

Total # of neighbors = 22378
Ave neighs/atom = 6.99313
Neighbor list builds = 7770
Dangerous builds = 0
Total wall time: 0:00:32
endTime:Mon Nov 16 03:33:49 PST 2020


Starting job in fewerSwitch policy..
startTime:Mon Nov 16 03:33:49 PST 2020

LAMMPS (20 Apr 2018)
OMP_NUM_THREADS environment is not set. Defaulting to 1 thread. (../comm.cpp:90)
  using 1 OpenMP thread(s) per MPI task
Lattice spacing in x,y,z = 1.82574 1.82574 1.82574
Created orthogonal box = (0 0 -0.182574) to (73.0297 73.0297 0.182574)
  64 by 34 by 1 MPI processor grid
Created 3200 atoms
  Time spent = 0.00661898 secs
Neighbor list info ...
  update every 1 steps, delay 0 steps, check yes
  max neighbors/atom: 2000, page size: 100000
  master list distance cutoff = 2.8
  ghost atom cutoff = 2.8
  binsize = 1.4, bins = 53 53 1
  1 neighbor lists, perpetual/occasional/extra = 1 0 0
  (1) pair lj/cut, perpetual
      attributes: half, newton on
      pair build: half/bin/atomonly/newton
      stencil: half/bin/2d/newton
      bin: standard
Setting up Verlet run ...
  Unit style    : lj
  Current step  : 0
  Time step     : 0.005
Per MPI rank memory allocation (min/avg/max) = 2.702 | 2.797 | 2.952 Mbytes
Step Temp E_pair E_mol TotEng Press 
       0            1     -1.56492            0   -0.5652325   -1.5346995 
    1000    1.0063515   -1.5732592            0  -0.56722209    1.0061204 
    2000   0.95792094   -1.5781469            0  -0.62052531   0.96571772 
    3000   0.98401573    -1.588743            0  -0.60503472   0.97094222 
    4000   0.99740124   -1.5757024            0  -0.57861287   0.99998732 
    5000    1.0348886   -1.6022633            0  -0.56769811   0.97795086 
Loop time of 1.63489 on 2176 procs for 5000 steps with 3200 atoms

Performance: 1321191.799 tau/day, 3058.314 timesteps/s
96.9% CPU use with 2176 MPI tasks x 1 OpenMP threads

MPI task timing breakdown:
Section |  min time  |  avg time  |  max time  |%varavg| %total
---------------------------------------------------------------
Pair    | 0.011925   | 0.014503   | 0.020092   |   0.6 |  0.89
Neigh   | 0.0046892  | 0.0054033  | 0.0082111  |   0.6 |  0.33
Comm    | 0.63633    | 0.70108    | 0.91008    |   5.2 | 42.88
Output  | 0.0027151  | 0.0029588  | 0.0031581  |   0.1 |  0.18
Modify  | 0.030536   | 0.033366   | 0.042068   |   0.5 |  2.04
Other   |            | 0.8776     |            |       | 53.68

Nlocal:    1.47059 ave 4 max 0 min
Histogram: 156 0 945 0 0 972 0 101 0 2
Nghost:    29.7891 ave 39 max 22 min
Histogram: 19 78 286 246 701 556 148 126 15 1
Neighs:    10.324 ave 33 max 0 min
Histogram: 178 392 523 392 399 200 61 27 1 3

Total # of neighbors = 22465
Ave neighs/atom = 7.02031
Neighbor list builds = 601
Dangerous builds = 0
Setting up Verlet run ...
  Unit style    : lj
  Current step  : 0
  Time step     : 0.005
Per MPI rank memory allocation (min/avg/max) = 3.327 | 3.327 | 3.327 Mbytes
Step Temp c_vacf[4] v_vacf 
       0    1.0348886    2.0691304            0 
    5000      1.01618  0.010970342    0.3062452 
   10000    1.0210865 0.0018251732    0.3939561 
   15000    1.0201407 -0.0051204578   0.50191967 
   20000    1.0169872  0.032935727   0.54134779 
   25000    1.0117798  -0.01580966     0.615112 
   30000    1.0284167 -0.0089673686   0.71447644 
   35000    1.0072394 -0.027346896   0.70401385 
   40000    1.0180797 -0.024551015   0.74660961 
   45000    1.0221593 -0.0059135592   0.75865906 
   50000    1.0150177  -0.04225538   0.87981449 
   55000    1.0190131 -0.039301263   0.91325887 
   60000    1.0153908  0.068561184   0.90266577 
Loop time of 34.2191 on 2176 procs for 60000 steps with 3200 atoms

Performance: 757470.864 tau/day, 1753.405 timesteps/s
98.2% CPU use with 2176 MPI tasks x 1 OpenMP threads

MPI task timing breakdown:
Section |  min time  |  avg time  |  max time  |%varavg| %total
---------------------------------------------------------------
Pair    | 0.16577    | 0.17455    | 0.24653    |   1.8 |  0.51
Neigh   | 0.064615   | 0.070151   | 0.10412    |   2.2 |  0.21
Comm    | 7.9012     | 8.7297     | 11.379     |  20.1 | 25.51
Output  | 0.010565   | 0.010833   | 0.011624   |   0.1 |  0.03
Modify  | 15.23      | 17.883     | 18.698     |  14.1 | 52.26
Other   |            | 7.351      |            |       | 21.48

Nlocal:    1.47059 ave 4 max 0 min
Histogram: 157 0 936 0 0 987 0 94 0 2
Nghost:    29.9081 ave 38 max 20 min
Histogram: 9 24 120 260 239 579 567 278 84 16
Neighs:    10.284 ave 33 max 0 min
Histogram: 171 403 492 438 388 205 50 19 8 2

Total # of neighbors = 22378
Ave neighs/atom = 6.99313
Neighbor list builds = 7770
Dangerous builds = 0
Total wall time: 0:00:36
endTime:Mon Nov 16 03:34:39 PST 2020


Starting job in random policy..
startTime:Mon Nov 16 03:34:39 PST 2020

LAMMPS (20 Apr 2018)
OMP_NUM_THREADS environment is not set. Defaulting to 1 thread. (../comm.cpp:90)
  using 1 OpenMP thread(s) per MPI task
Lattice spacing in x,y,z = 1.82574 1.82574 1.82574
Created orthogonal box = (0 0 -0.182574) to (73.0297 73.0297 0.182574)
  64 by 34 by 1 MPI processor grid
Created 3200 atoms
  Time spent = 0.00775218 secs
Neighbor list info ...
  update every 1 steps, delay 0 steps, check yes
  max neighbors/atom: 2000, page size: 100000
  master list distance cutoff = 2.8
  ghost atom cutoff = 2.8
  binsize = 1.4, bins = 53 53 1
  1 neighbor lists, perpetual/occasional/extra = 1 0 0
  (1) pair lj/cut, perpetual
      attributes: half, newton on
      pair build: half/bin/atomonly/newton
      stencil: half/bin/2d/newton
      bin: standard
Setting up Verlet run ...
  Unit style    : lj
  Current step  : 0
  Time step     : 0.005
Per MPI rank memory allocation (min/avg/max) = 2.702 | 2.797 | 2.952 Mbytes
Step Temp E_pair E_mol TotEng Press 
       0            1     -1.56492            0   -0.5652325   -1.5346995 
    1000    1.0063515   -1.5732592            0  -0.56722209    1.0061204 
    2000   0.95792094   -1.5781469            0  -0.62052531   0.96571772 
    3000   0.98401573    -1.588743            0  -0.60503472   0.97094222 
    4000   0.99740124   -1.5757024            0  -0.57861287   0.99998732 
    5000    1.0348886   -1.6022633            0  -0.56769811   0.97795086 
Loop time of 2.08851 on 2176 procs for 5000 steps with 3200 atoms

Performance: 1034227.736 tau/day, 2394.046 timesteps/s
97.5% CPU use with 2176 MPI tasks x 1 OpenMP threads

MPI task timing breakdown:
Section |  min time  |  avg time  |  max time  |%varavg| %total
---------------------------------------------------------------
Pair    | 0.01192    | 0.014502   | 0.019642   |   0.6 |  0.69
Neigh   | 0.0047076  | 0.0054121  | 0.0079882  |   0.6 |  0.26
Comm    | 0.69124    | 0.80165    | 1.0533     |   7.7 | 38.38
Output  | 0.0027263  | 0.0029007  | 0.003144   |   0.1 |  0.14
Modify  | 0.0308     | 0.033434   | 0.043068   |   0.7 |  1.60
Other   |            | 1.231      |            |       | 58.92

Nlocal:    1.47059 ave 4 max 0 min
Histogram: 156 0 945 0 0 972 0 101 0 2
Nghost:    29.7891 ave 39 max 22 min
Histogram: 19 78 286 246 701 556 148 126 15 1
Neighs:    10.324 ave 33 max 0 min
Histogram: 178 392 523 392 399 200 61 27 1 3

Total # of neighbors = 22465
Ave neighs/atom = 7.02031
Neighbor list builds = 601
Dangerous builds = 0
Setting up Verlet run ...
  Unit style    : lj
  Current step  : 0
  Time step     : 0.005
Per MPI rank memory allocation (min/avg/max) = 3.327 | 3.327 | 3.327 Mbytes
Step Temp c_vacf[4] v_vacf 
       0    1.0348886    2.0691304            0 
    5000      1.01618  0.010970342    0.3062452 
   10000    1.0210865 0.0018251732    0.3939561 
   15000    1.0201407 -0.0051204578   0.50191967 
   20000    1.0169872  0.032935727   0.54134779 
   25000    1.0117798  -0.01580966     0.615112 
   30000    1.0284167 -0.0089673686   0.71447644 
   35000    1.0072394 -0.027346896   0.70401385 
   40000    1.0180797 -0.024551015   0.74660961 
   45000    1.0221593 -0.0059135592   0.75865906 
   50000    1.0150177  -0.04225538   0.87981449 
   55000    1.0190131 -0.039301263   0.91325887 
   60000    1.0153908  0.068561184   0.90266577 
Loop time of 43.7837 on 2176 procs for 60000 steps with 3200 atoms

Performance: 592001.803 tau/day, 1370.375 timesteps/s
98.5% CPU use with 2176 MPI tasks x 1 OpenMP threads

MPI task timing breakdown:
Section |  min time  |  avg time  |  max time  |%varavg| %total
---------------------------------------------------------------
Pair    | 0.16579    | 0.17466    | 0.25293    |   2.1 |  0.40
Neigh   | 0.064399   | 0.070311   | 0.10622    |   2.2 |  0.16
Comm    | 9.083      | 10.336     | 12.862     |  21.2 | 23.61
Output  | 0.011241   | 0.011569   | 0.012547   |   0.1 |  0.03
Modify  | 21.418     | 23.929     | 25.196     |  13.9 | 54.65
Other   |            | 9.262      |            |       | 21.15

Nlocal:    1.47059 ave 4 max 0 min
Histogram: 157 0 936 0 0 987 0 94 0 2
Nghost:    29.9081 ave 38 max 20 min
Histogram: 9 24 120 260 239 579 567 278 84 16
Neighs:    10.284 ave 33 max 0 min
Histogram: 171 403 492 438 388 205 50 19 8 2

Total # of neighbors = 22378
Ave neighs/atom = 6.99313
Neighbor list builds = 7770
Dangerous builds = 0
Total wall time: 0:00:46
endTime:Mon Nov 16 03:35:37 PST 2020


Starting job in antinedd policy..
startTime:Mon Nov 16 03:35:37 PST 2020

LAMMPS (20 Apr 2018)
OMP_NUM_THREADS environment is not set. Defaulting to 1 thread. (../comm.cpp:90)
  using 1 OpenMP thread(s) per MPI task
Lattice spacing in x,y,z = 1.82574 1.82574 1.82574
Created orthogonal box = (0 0 -0.182574) to (73.0297 73.0297 0.182574)
  64 by 34 by 1 MPI processor grid
Created 3200 atoms
  Time spent = 0.010813 secs
Neighbor list info ...
  update every 1 steps, delay 0 steps, check yes
  max neighbors/atom: 2000, page size: 100000
  master list distance cutoff = 2.8
  ghost atom cutoff = 2.8
  binsize = 1.4, bins = 53 53 1
  1 neighbor lists, perpetual/occasional/extra = 1 0 0
  (1) pair lj/cut, perpetual
      attributes: half, newton on
      pair build: half/bin/atomonly/newton
      stencil: half/bin/2d/newton
      bin: standard
Setting up Verlet run ...
  Unit style    : lj
  Current step  : 0
  Time step     : 0.005
Per MPI rank memory allocation (min/avg/max) = 2.702 | 2.797 | 2.952 Mbytes
Step Temp E_pair E_mol TotEng Press 
       0            1     -1.56492            0   -0.5652325   -1.5346995 
    1000    1.0063515   -1.5732592            0  -0.56722209    1.0061204 
    2000   0.95792094   -1.5781469            0  -0.62052531   0.96571772 
    3000   0.98401573    -1.588743            0  -0.60503472   0.97094222 
    4000   0.99740124   -1.5757024            0  -0.57861287   0.99998732 
    5000    1.0348886   -1.6022633            0  -0.56769811   0.97795086 
Loop time of 1.62969 on 2176 procs for 5000 steps with 3200 atoms

Performance: 1325408.133 tau/day, 3068.074 timesteps/s
96.9% CPU use with 2176 MPI tasks x 1 OpenMP threads

MPI task timing breakdown:
Section |  min time  |  avg time  |  max time  |%varavg| %total
---------------------------------------------------------------
Pair    | 0.012044   | 0.014509   | 0.019009   |   0.6 |  0.89
Neigh   | 0.0047326  | 0.005399   | 0.0080161  |   0.6 |  0.33
Comm    | 0.59887    | 0.69145    | 0.89205    |   5.4 | 42.43
Output  | 0.0030141  | 0.0035334  | 0.003768   |   0.4 |  0.22
Modify  | 0.03091    | 0.033373   | 0.040873   |   0.6 |  2.05
Other   |            | 0.8814     |            |       | 54.09

Nlocal:    1.47059 ave 4 max 0 min
Histogram: 156 0 945 0 0 972 0 101 0 2
Nghost:    29.7891 ave 39 max 22 min
Histogram: 19 78 286 246 701 556 148 126 15 1
Neighs:    10.324 ave 33 max 0 min
Histogram: 178 392 523 392 399 200 61 27 1 3

Total # of neighbors = 22465
Ave neighs/atom = 7.02031
Neighbor list builds = 601
Dangerous builds = 0
Setting up Verlet run ...
  Unit style    : lj
  Current step  : 0
  Time step     : 0.005
Per MPI rank memory allocation (min/avg/max) = 3.327 | 3.327 | 3.327 Mbytes
Step Temp c_vacf[4] v_vacf 
       0    1.0348886    2.0691304            0 
    5000      1.01618  0.010970342    0.3062452 
   10000    1.0210865 0.0018251732    0.3939561 
   15000    1.0201407 -0.0051204578   0.50191967 
   20000    1.0169872  0.032935727   0.54134779 
   25000    1.0117798  -0.01580966     0.615112 
   30000    1.0284167 -0.0089673686   0.71447644 
   35000    1.0072394 -0.027346896   0.70401385 
   40000    1.0180797 -0.024551015   0.74660961 
   45000    1.0221593 -0.0059135592   0.75865906 
   50000    1.0150177  -0.04225538   0.87981449 
   55000    1.0190131 -0.039301263   0.91325887 
   60000    1.0153908  0.068561184   0.90266577 
Loop time of 36.7793 on 2176 procs for 60000 steps with 3200 atoms

Performance: 704743.662 tau/day, 1631.351 timesteps/s
98.3% CPU use with 2176 MPI tasks x 1 OpenMP threads

MPI task timing breakdown:
Section |  min time  |  avg time  |  max time  |%varavg| %total
---------------------------------------------------------------
Pair    | 0.16586    | 0.17462    | 0.24239    |   1.8 |  0.47
Neigh   | 0.064496   | 0.069986   | 0.10593    |   2.2 |  0.19
Comm    | 7.9147     | 9.2953     | 11.784     |  20.8 | 25.27
Output  | 0.010485   | 0.01078    | 0.011637   |   0.1 |  0.03
Modify  | 16.976     | 19.432     | 20.796     |  14.3 | 52.84
Other   |            | 7.796      |            |       | 21.20

Nlocal:    1.47059 ave 4 max 0 min
Histogram: 157 0 936 0 0 987 0 94 0 2
Nghost:    29.9081 ave 38 max 20 min
Histogram: 9 24 120 260 239 579 567 278 84 16
Neighs:    10.284 ave 33 max 0 min
Histogram: 171 403 492 438 388 205 50 19 8 2

Total # of neighbors = 22378
Ave neighs/atom = 6.99313
Neighbor list builds = 7770
Dangerous builds = 0
Total wall time: 0:00:38
endTime:Mon Nov 16 03:36:23 PST 2020


Starting job in neddNoCong policy..
startTime:Mon Nov 16 03:36:29 PST 2020

LAMMPS (20 Apr 2018)
OMP_NUM_THREADS environment is not set. Defaulting to 1 thread. (../comm.cpp:90)
  using 1 OpenMP thread(s) per MPI task
Lattice spacing in x,y,z = 1.82574 1.82574 1.82574
Created orthogonal box = (0 0 -0.182574) to (73.0297 73.0297 0.182574)
  64 by 34 by 1 MPI processor grid
Created 3200 atoms
  Time spent = 0.010422 secs
Neighbor list info ...
  update every 1 steps, delay 0 steps, check yes
  max neighbors/atom: 2000, page size: 100000
  master list distance cutoff = 2.8
  ghost atom cutoff = 2.8
  binsize = 1.4, bins = 53 53 1
  1 neighbor lists, perpetual/occasional/extra = 1 0 0
  (1) pair lj/cut, perpetual
      attributes: half, newton on
      pair build: half/bin/atomonly/newton
      stencil: half/bin/2d/newton
      bin: standard
Setting up Verlet run ...
  Unit style    : lj
  Current step  : 0
  Time step     : 0.005
Per MPI rank memory allocation (min/avg/max) = 2.702 | 2.797 | 2.952 Mbytes
Step Temp E_pair E_mol TotEng Press 
       0            1     -1.56492            0   -0.5652325   -1.5346995 
    1000    1.0063515   -1.5732592            0  -0.56722209    1.0061204 
    2000   0.95792094   -1.5781469            0  -0.62052531   0.96571772 
    3000   0.98401573    -1.588743            0  -0.60503472   0.97094222 
    4000   0.99740124   -1.5757024            0  -0.57861287   0.99998732 
    5000    1.0348886   -1.6022633            0  -0.56769811   0.97795086 
Loop time of 1.63691 on 2176 procs for 5000 steps with 3200 atoms

Performance: 1319556.247 tau/day, 3054.528 timesteps/s
97.1% CPU use with 2176 MPI tasks x 1 OpenMP threads

MPI task timing breakdown:
Section |  min time  |  avg time  |  max time  |%varavg| %total
---------------------------------------------------------------
Pair    | 0.011927   | 0.014494   | 0.019174   |   0.6 |  0.89
Neigh   | 0.004688   | 0.0054009  | 0.0081046  |   0.6 |  0.33
Comm    | 0.61635    | 0.70104    | 0.8526     |   5.3 | 42.83
Output  | 0.0026302  | 0.0028614  | 0.0031953  |   0.3 |  0.17
Modify  | 0.030775   | 0.033384   | 0.042097   |   0.6 |  2.04
Other   |            | 0.8797     |            |       | 53.74

Nlocal:    1.47059 ave 4 max 0 min
Histogram: 156 0 945 0 0 972 0 101 0 2
Nghost:    29.7891 ave 39 max 22 min
Histogram: 19 78 286 246 701 556 148 126 15 1
Neighs:    10.324 ave 33 max 0 min
Histogram: 178 392 523 392 399 200 61 27 1 3

Total # of neighbors = 22465
Ave neighs/atom = 7.02031
Neighbor list builds = 601
Dangerous builds = 0
Setting up Verlet run ...
  Unit style    : lj
  Current step  : 0
  Time step     : 0.005
Per MPI rank memory allocation (min/avg/max) = 3.327 | 3.327 | 3.327 Mbytes
Step Temp c_vacf[4] v_vacf 
       0    1.0348886    2.0691304            0 
    5000      1.01618  0.010970342    0.3062452 
   10000    1.0210865 0.0018251732    0.3939561 
   15000    1.0201407 -0.0051204578   0.50191967 
   20000    1.0169872  0.032935727   0.54134779 
   25000    1.0117798  -0.01580966     0.615112 
   30000    1.0284167 -0.0089673686   0.71447644 
   35000    1.0072394 -0.027346896   0.70401385 
   40000    1.0180797 -0.024551015   0.74660961 
   45000    1.0221593 -0.0059135592   0.75865906 
   50000    1.0150177  -0.04225538   0.87981449 
   55000    1.0190131 -0.039301263   0.91325887 
   60000    1.0153908  0.068561184   0.90266577 
Loop time of 32.8407 on 2176 procs for 60000 steps with 3200 atoms

Performance: 789263.961 tau/day, 1827.000 timesteps/s
98.1% CPU use with 2176 MPI tasks x 1 OpenMP threads

MPI task timing breakdown:
Section |  min time  |  avg time  |  max time  |%varavg| %total
---------------------------------------------------------------
Pair    | 0.16668    | 0.1744     | 0.23418    |   1.7 |  0.53
Neigh   | 0.064698   | 0.070036   | 0.1061     |   2.1 |  0.21
Comm    | 7.7012     | 8.6202     | 10.913     |  18.6 | 26.25
Output  | 0.010568   | 0.010844   | 0.011642   |   0.1 |  0.03
Modify  | 14.594     | 16.985     | 17.872     |  13.2 | 51.72
Other   |            | 6.98       |            |       | 21.25

Nlocal:    1.47059 ave 4 max 0 min
Histogram: 157 0 936 0 0 987 0 94 0 2
Nghost:    29.9081 ave 38 max 20 min
Histogram: 9 24 120 260 239 579 567 278 84 16
Neighs:    10.284 ave 33 max 0 min
Histogram: 171 403 492 438 388 205 50 19 8 2

Total # of neighbors = 22378
Ave neighs/atom = 6.99313
Neighbor list builds = 7770
Dangerous builds = 0
Total wall time: 0:00:34
endTime:Mon Nov 16 03:37:11 PST 2020


Starting job in fewerNoCong policy..
startTime:Mon Nov 16 03:37:11 PST 2020

LAMMPS (20 Apr 2018)
OMP_NUM_THREADS environment is not set. Defaulting to 1 thread. (../comm.cpp:90)
  using 1 OpenMP thread(s) per MPI task
Lattice spacing in x,y,z = 1.82574 1.82574 1.82574
Created orthogonal box = (0 0 -0.182574) to (73.0297 73.0297 0.182574)
  64 by 34 by 1 MPI processor grid
Created 3200 atoms
  Time spent = 0.00968409 secs
Neighbor list info ...
  update every 1 steps, delay 0 steps, check yes
  max neighbors/atom: 2000, page size: 100000
  master list distance cutoff = 2.8
  ghost atom cutoff = 2.8
  binsize = 1.4, bins = 53 53 1
  1 neighbor lists, perpetual/occasional/extra = 1 0 0
  (1) pair lj/cut, perpetual
      attributes: half, newton on
      pair build: half/bin/atomonly/newton
      stencil: half/bin/2d/newton
      bin: standard
Setting up Verlet run ...
  Unit style    : lj
  Current step  : 0
  Time step     : 0.005
Per MPI rank memory allocation (min/avg/max) = 2.702 | 2.797 | 2.952 Mbytes
Step Temp E_pair E_mol TotEng Press 
       0            1     -1.56492            0   -0.5652325   -1.5346995 
    1000    1.0063515   -1.5732592            0  -0.56722209    1.0061204 
    2000   0.95792094   -1.5781469            0  -0.62052531   0.96571772 
    3000   0.98401573    -1.588743            0  -0.60503472   0.97094222 
    4000   0.99740124   -1.5757024            0  -0.57861287   0.99998732 
    5000    1.0348886   -1.6022633            0  -0.56769811   0.97795086 
Loop time of 1.57503 on 2176 procs for 5000 steps with 3200 atoms

Performance: 1371402.366 tau/day, 3174.543 timesteps/s
96.7% CPU use with 2176 MPI tasks x 1 OpenMP threads

MPI task timing breakdown:
Section |  min time  |  avg time  |  max time  |%varavg| %total
---------------------------------------------------------------
Pair    | 0.012027   | 0.014512   | 0.019672   |   0.6 |  0.92
Neigh   | 0.0047302  | 0.0053895  | 0.0080404  |   0.6 |  0.34
Comm    | 0.61663    | 0.6905     | 0.86601    |   4.3 | 43.84
Output  | 0.002573   | 0.0027849  | 0.002908   |   0.1 |  0.18
Modify  | 0.030717   | 0.033417   | 0.041762   |   0.6 |  2.12
Other   |            | 0.8284     |            |       | 52.60

Nlocal:    1.47059 ave 4 max 0 min
Histogram: 156 0 945 0 0 972 0 101 0 2
Nghost:    29.7891 ave 39 max 22 min
Histogram: 19 78 286 246 701 556 148 126 15 1
Neighs:    10.324 ave 33 max 0 min
Histogram: 178 392 523 392 399 200 61 27 1 3

Total # of neighbors = 22465
Ave neighs/atom = 7.02031
Neighbor list builds = 601
Dangerous builds = 0
Setting up Verlet run ...
  Unit style    : lj
  Current step  : 0
  Time step     : 0.005
Per MPI rank memory allocation (min/avg/max) = 3.327 | 3.327 | 3.327 Mbytes
Step Temp c_vacf[4] v_vacf 
       0    1.0348886    2.0691304            0 
    5000      1.01618  0.010970342    0.3062452 
   10000    1.0210865 0.0018251732    0.3939561 
   15000    1.0201407 -0.0051204578   0.50191967 
   20000    1.0169872  0.032935727   0.54134779 
   25000    1.0117798  -0.01580966     0.615112 
   30000    1.0284167 -0.0089673686   0.71447644 
   35000    1.0072394 -0.027346896   0.70401385 
   40000    1.0180797 -0.024551015   0.74660961 
   45000    1.0221593 -0.0059135592   0.75865906 
   50000    1.0150177  -0.04225538   0.87981449 
   55000    1.0190131 -0.039301263   0.91325887 
   60000    1.0153908  0.068561184   0.90266577 
Loop time of 31.8585 on 2176 procs for 60000 steps with 3200 atoms

Performance: 813597.692 tau/day, 1883.328 timesteps/s
98.0% CPU use with 2176 MPI tasks x 1 OpenMP threads

MPI task timing breakdown:
Section |  min time  |  avg time  |  max time  |%varavg| %total
---------------------------------------------------------------
Pair    | 0.16556    | 0.17451    | 0.24787    |   1.8 |  0.55
Neigh   | 0.064463   | 0.069646   | 0.10579    |   2.1 |  0.22
Comm    | 7.5988     | 8.4019     | 11.033     |  19.2 | 26.37
Output  | 0.015212   | 0.017727   | 0.021229   |   1.4 |  0.06
Modify  | 13.742     | 16.378     | 17.159     |  13.9 | 51.41
Other   |            | 6.817      |            |       | 21.40

Nlocal:    1.47059 ave 4 max 0 min
Histogram: 157 0 936 0 0 987 0 94 0 2
Nghost:    29.9081 ave 38 max 20 min
Histogram: 9 24 120 260 239 579 567 278 84 16
Neighs:    10.284 ave 33 max 0 min
Histogram: 171 403 492 438 388 205 50 19 8 2

Total # of neighbors = 22378
Ave neighs/atom = 6.99313
Neighbor list builds = 7770
Dangerous builds = 0
Total wall time: 0:00:33
endTime:Mon Nov 16 03:37:56 PST 2020


====================
iteration 2
Starting job in nedd policy..
startTime:Mon Nov 16 03:40:27 PST 2020

LAMMPS (20 Apr 2018)
OMP_NUM_THREADS environment is not set. Defaulting to 1 thread. (../comm.cpp:90)
  using 1 OpenMP thread(s) per MPI task
Lattice spacing in x,y,z = 1.82574 1.82574 1.82574
Created orthogonal box = (0 0 -0.182574) to (73.0297 73.0297 0.182574)
  64 by 34 by 1 MPI processor grid
Created 3200 atoms
  Time spent = 0.0105209 secs
Neighbor list info ...
  update every 1 steps, delay 0 steps, check yes
  max neighbors/atom: 2000, page size: 100000
  master list distance cutoff = 2.8
  ghost atom cutoff = 2.8
  binsize = 1.4, bins = 53 53 1
  1 neighbor lists, perpetual/occasional/extra = 1 0 0
  (1) pair lj/cut, perpetual
      attributes: half, newton on
      pair build: half/bin/atomonly/newton
      stencil: half/bin/2d/newton
      bin: standard
Setting up Verlet run ...
  Unit style    : lj
  Current step  : 0
  Time step     : 0.005
Per MPI rank memory allocation (min/avg/max) = 2.702 | 2.797 | 2.952 Mbytes
Step Temp E_pair E_mol TotEng Press 
       0            1     -1.56492            0   -0.5652325   -1.5346995 
    1000    1.0063515   -1.5732592            0  -0.56722209    1.0061204 
    2000   0.95792094   -1.5781469            0  -0.62052531   0.96571772 
    3000   0.98401573    -1.588743            0  -0.60503472   0.97094222 
    4000   0.99740124   -1.5757024            0  -0.57861287   0.99998732 
    5000    1.0348886   -1.6022633            0  -0.56769811   0.97795086 
Loop time of 1.76452 on 2176 procs for 5000 steps with 3200 atoms

Performance: 1224131.254 tau/day, 2833.637 timesteps/s
97.2% CPU use with 2176 MPI tasks x 1 OpenMP threads

MPI task timing breakdown:
Section |  min time  |  avg time  |  max time  |%varavg| %total
---------------------------------------------------------------
Pair    | 0.012078   | 0.014544   | 0.019797   |   0.6 |  0.82
Neigh   | 0.0046978  | 0.0053824  | 0.0079794  |   0.6 |  0.31
Comm    | 0.63       | 0.72407    | 0.90404    |   5.5 | 41.04
Output  | 0.0033071  | 0.0034986  | 0.0036378  |   0.1 |  0.20
Modify  | 0.030712   | 0.033282   | 0.04458    |   0.6 |  1.89
Other   |            | 0.9837     |            |       | 55.75

Nlocal:    1.47059 ave 4 max 0 min
Histogram: 156 0 945 0 0 972 0 101 0 2
Nghost:    29.7891 ave 39 max 22 min
Histogram: 19 78 286 246 701 556 148 126 15 1
Neighs:    10.324 ave 33 max 0 min
Histogram: 178 392 523 392 399 200 61 27 1 3

Total # of neighbors = 22465
Ave neighs/atom = 7.02031
Neighbor list builds = 601
Dangerous builds = 0
Setting up Verlet run ...
  Unit style    : lj
  Current step  : 0
  Time step     : 0.005
Per MPI rank memory allocation (min/avg/max) = 3.327 | 3.327 | 3.327 Mbytes
Step Temp c_vacf[4] v_vacf 
       0    1.0348886    2.0691304            0 
    5000      1.01618  0.010970342    0.3062452 
   10000    1.0210865 0.0018251732    0.3939561 
   15000    1.0201407 -0.0051204578   0.50191967 
   20000    1.0169872  0.032935727   0.54134779 
   25000    1.0117798  -0.01580966     0.615112 
   30000    1.0284167 -0.0089673686   0.71447644 
   35000    1.0072394 -0.027346896   0.70401385 
   40000    1.0180797 -0.024551015   0.74660961 
   45000    1.0221593 -0.0059135592   0.75865906 
   50000    1.0150177  -0.04225538   0.87981449 
   55000    1.0190131 -0.039301263   0.91325887 
   60000    1.0153908  0.068561184   0.90266577 
Loop time of 31.0622 on 2176 procs for 60000 steps with 3200 atoms

Performance: 834454.267 tau/day, 1931.607 timesteps/s
98.0% CPU use with 2176 MPI tasks x 1 OpenMP threads

MPI task timing breakdown:
Section |  min time  |  avg time  |  max time  |%varavg| %total
---------------------------------------------------------------
Pair    | 0.16506    | 0.17474    | 0.24524    |   1.8 |  0.56
Neigh   | 0.064838   | 0.069518   | 0.10523    |   2.1 |  0.22
Comm    | 7.4204     | 8.2913     | 10.704     |  19.1 | 26.69
Output  | 0.01033    | 0.01071    | 0.011526   |   0.1 |  0.03
Modify  | 13.428     | 15.909     | 16.79      |  13.9 | 51.22
Other   |            | 6.607      |            |       | 21.27

Nlocal:    1.47059 ave 4 max 0 min
Histogram: 157 0 936 0 0 987 0 94 0 2
Nghost:    29.9081 ave 38 max 20 min
Histogram: 9 24 120 260 239 579 567 278 84 16
Neighs:    10.284 ave 33 max 0 min
Histogram: 171 403 492 438 388 205 50 19 8 2

Total # of neighbors = 22378
Ave neighs/atom = 6.99313
Neighbor list builds = 7770
Dangerous builds = 0
Total wall time: 0:00:33
endTime:Mon Nov 16 03:41:10 PST 2020


Starting job in lowerRouterStall policy..
startTime:Mon Nov 16 03:41:10 PST 2020

LAMMPS (20 Apr 2018)
OMP_NUM_THREADS environment is not set. Defaulting to 1 thread. (../comm.cpp:90)
  using 1 OpenMP thread(s) per MPI task
Lattice spacing in x,y,z = 1.82574 1.82574 1.82574
Created orthogonal box = (0 0 -0.182574) to (73.0297 73.0297 0.182574)
  64 by 34 by 1 MPI processor grid
Created 3200 atoms
  Time spent = 0.00440598 secs
Neighbor list info ...
  update every 1 steps, delay 0 steps, check yes
  max neighbors/atom: 2000, page size: 100000
  master list distance cutoff = 2.8
  ghost atom cutoff = 2.8
  binsize = 1.4, bins = 53 53 1
  1 neighbor lists, perpetual/occasional/extra = 1 0 0
  (1) pair lj/cut, perpetual
      attributes: half, newton on
      pair build: half/bin/atomonly/newton
      stencil: half/bin/2d/newton
      bin: standard
Setting up Verlet run ...
  Unit style    : lj
  Current step  : 0
  Time step     : 0.005
Per MPI rank memory allocation (min/avg/max) = 2.702 | 2.797 | 2.952 Mbytes
Step Temp E_pair E_mol TotEng Press 
       0            1     -1.56492            0   -0.5652325   -1.5346995 
    1000    1.0063515   -1.5732592            0  -0.56722209    1.0061204 
    2000   0.95792094   -1.5781469            0  -0.62052531   0.96571772 
    3000   0.98401573    -1.588743            0  -0.60503472   0.97094222 
    4000   0.99740124   -1.5757024            0  -0.57861287   0.99998732 
    5000    1.0348886   -1.6022633            0  -0.56769811   0.97795086 
Loop time of 1.52075 on 2176 procs for 5000 steps with 3200 atoms

Performance: 1420351.323 tau/day, 3287.850 timesteps/s
96.7% CPU use with 2176 MPI tasks x 1 OpenMP threads

MPI task timing breakdown:
Section |  min time  |  avg time  |  max time  |%varavg| %total
---------------------------------------------------------------
Pair    | 0.012135   | 0.014545   | 0.019104   |   0.6 |  0.96
Neigh   | 0.0046751  | 0.0053787  | 0.0080454  |   0.6 |  0.35
Comm    | 0.5943     | 0.65881    | 0.83341    |   4.6 | 43.32
Output  | 0.0030713  | 0.0032929  | 0.0033817  |   0.1 |  0.22
Modify  | 0.030549   | 0.033245   | 0.044037   |   0.6 |  2.19
Other   |            | 0.8055     |            |       | 52.97

Nlocal:    1.47059 ave 4 max 0 min
Histogram: 156 0 945 0 0 972 0 101 0 2
Nghost:    29.7891 ave 39 max 22 min
Histogram: 19 78 286 246 701 556 148 126 15 1
Neighs:    10.324 ave 33 max 0 min
Histogram: 178 392 523 392 399 200 61 27 1 3

Total # of neighbors = 22465
Ave neighs/atom = 7.02031
Neighbor list builds = 601
Dangerous builds = 0
Setting up Verlet run ...
  Unit style    : lj
  Current step  : 0
  Time step     : 0.005
Per MPI rank memory allocation (min/avg/max) = 3.327 | 3.327 | 3.327 Mbytes
Step Temp c_vacf[4] v_vacf 
       0    1.0348886    2.0691304            0 
    5000      1.01618  0.010970342    0.3062452 
   10000    1.0210865 0.0018251732    0.3939561 
   15000    1.0201407 -0.0051204578   0.50191967 
   20000    1.0169872  0.032935727   0.54134779 
   25000    1.0117798  -0.01580966     0.615112 
   30000    1.0284167 -0.0089673686   0.71447644 
   35000    1.0072394 -0.027346896   0.70401385 
   40000    1.0180797 -0.024551015   0.74660961 
   45000    1.0221593 -0.0059135592   0.75865906 
   50000    1.0150177  -0.04225538   0.87981449 
   55000    1.0190131 -0.039301263   0.91325887 
   60000    1.0153908  0.068561184   0.90266577 
Loop time of 32.5853 on 2176 procs for 60000 steps with 3200 atoms

Performance: 795450.686 tau/day, 1841.321 timesteps/s
98.1% CPU use with 2176 MPI tasks x 1 OpenMP threads

MPI task timing breakdown:
Section |  min time  |  avg time  |  max time  |%varavg| %total
---------------------------------------------------------------
Pair    | 0.1644     | 0.17516    | 0.23805    |   1.8 |  0.54
Neigh   | 0.064553   | 0.069954   | 0.10533    |   2.2 |  0.21
Comm    | 7.4084     | 8.4158     | 10.78      |  21.6 | 25.83
Output  | 0.010413   | 0.010768   | 0.011554   |   0.1 |  0.03
Modify  | 14.847     | 17.172     | 18.142     |  15.0 | 52.70
Other   |            | 6.742      |            |       | 20.69

Nlocal:    1.47059 ave 4 max 0 min
Histogram: 157 0 936 0 0 987 0 94 0 2
Nghost:    29.9081 ave 38 max 20 min
Histogram: 9 24 120 260 239 579 567 278 84 16
Neighs:    10.284 ave 33 max 0 min
Histogram: 171 403 492 438 388 205 50 19 8 2

Total # of neighbors = 22378
Ave neighs/atom = 6.99313
Neighbor list builds = 7770
Dangerous builds = 0
Total wall time: 0:00:34
endTime:Mon Nov 16 03:41:52 PST 2020


Starting job in fewerSwitch policy..
startTime:Mon Nov 16 03:41:52 PST 2020

LAMMPS (20 Apr 2018)
OMP_NUM_THREADS environment is not set. Defaulting to 1 thread. (../comm.cpp:90)
  using 1 OpenMP thread(s) per MPI task
Lattice spacing in x,y,z = 1.82574 1.82574 1.82574
Created orthogonal box = (0 0 -0.182574) to (73.0297 73.0297 0.182574)
  64 by 34 by 1 MPI processor grid
Created 3200 atoms
  Time spent = 0.00787187 secs
Neighbor list info ...
  update every 1 steps, delay 0 steps, check yes
  max neighbors/atom: 2000, page size: 100000
  master list distance cutoff = 2.8
  ghost atom cutoff = 2.8
  binsize = 1.4, bins = 53 53 1
  1 neighbor lists, perpetual/occasional/extra = 1 0 0
  (1) pair lj/cut, perpetual
      attributes: half, newton on
      pair build: half/bin/atomonly/newton
      stencil: half/bin/2d/newton
      bin: standard
Setting up Verlet run ...
  Unit style    : lj
  Current step  : 0
  Time step     : 0.005
Per MPI rank memory allocation (min/avg/max) = 2.702 | 2.797 | 2.952 Mbytes
Step Temp E_pair E_mol TotEng Press 
       0            1     -1.56492            0   -0.5652325   -1.5346995 
    1000    1.0063515   -1.5732592            0  -0.56722209    1.0061204 
    2000   0.95792094   -1.5781469            0  -0.62052531   0.96571772 
    3000   0.98401573    -1.588743            0  -0.60503472   0.97094222 
    4000   0.99740124   -1.5757024            0  -0.57861287   0.99998732 
    5000    1.0348886   -1.6022633            0  -0.56769811   0.97795086 
Loop time of 1.49594 on 2176 procs for 5000 steps with 3200 atoms

Performance: 1443909.228 tau/day, 3342.382 timesteps/s
96.6% CPU use with 2176 MPI tasks x 1 OpenMP threads

MPI task timing breakdown:
Section |  min time  |  avg time  |  max time  |%varavg| %total
---------------------------------------------------------------
Pair    | 0.012018   | 0.014455   | 0.019242   |   0.6 |  0.97
Neigh   | 0.0046606  | 0.0053619  | 0.0079334  |   0.6 |  0.36
Comm    | 0.59872    | 0.66238    | 0.84615    |   4.5 | 44.28
Output  | 0.0026999  | 0.0029648  | 0.0030885  |   0.1 |  0.20
Modify  | 0.030833   | 0.033302   | 0.042698   |   0.6 |  2.23
Other   |            | 0.7775     |            |       | 51.97

Nlocal:    1.47059 ave 4 max 0 min
Histogram: 156 0 945 0 0 972 0 101 0 2
Nghost:    29.7891 ave 39 max 22 min
Histogram: 19 78 286 246 701 556 148 126 15 1
Neighs:    10.324 ave 33 max 0 min
Histogram: 178 392 523 392 399 200 61 27 1 3

Total # of neighbors = 22465
Ave neighs/atom = 7.02031
Neighbor list builds = 601
Dangerous builds = 0
Setting up Verlet run ...
  Unit style    : lj
  Current step  : 0
  Time step     : 0.005
Per MPI rank memory allocation (min/avg/max) = 3.327 | 3.327 | 3.327 Mbytes
Step Temp c_vacf[4] v_vacf 
       0    1.0348886    2.0691304            0 
    5000      1.01618  0.010970342    0.3062452 
   10000    1.0210865 0.0018251732    0.3939561 
   15000    1.0201407 -0.0051204578   0.50191967 
   20000    1.0169872  0.032935727   0.54134779 
   25000    1.0117798  -0.01580966     0.615112 
   30000    1.0284167 -0.0089673686   0.71447644 
   35000    1.0072394 -0.027346896   0.70401385 
   40000    1.0180797 -0.024551015   0.74660961 
   45000    1.0221593 -0.0059135592   0.75865906 
   50000    1.0150177  -0.04225538   0.87981449 
   55000    1.0190131 -0.039301263   0.91325887 
   60000    1.0153908  0.068561184   0.90266577 
Loop time of 30.5974 on 2176 procs for 60000 steps with 3200 atoms

Performance: 847132.018 tau/day, 1960.954 timesteps/s
98.0% CPU use with 2176 MPI tasks x 1 OpenMP threads

MPI task timing breakdown:
Section |  min time  |  avg time  |  max time  |%varavg| %total
---------------------------------------------------------------
Pair    | 0.16494    | 0.17389    | 0.24278    |   1.6 |  0.57
Neigh   | 0.06475    | 0.069607   | 0.10618    |   2.1 |  0.23
Comm    | 7.3791     | 8.1843     | 10.688     |  17.7 | 26.75
Output  | 0.010396   | 0.010634   | 0.011486   |   0.1 |  0.03
Modify  | 13.098     | 15.636     | 16.448     |  13.0 | 51.10
Other   |            | 6.523      |            |       | 21.32

Nlocal:    1.47059 ave 4 max 0 min
Histogram: 157 0 936 0 0 987 0 94 0 2
Nghost:    29.9081 ave 38 max 20 min
Histogram: 9 24 120 260 239 579 567 278 84 16
Neighs:    10.284 ave 33 max 0 min
Histogram: 171 403 492 438 388 205 50 19 8 2

Total # of neighbors = 22378
Ave neighs/atom = 6.99313
Neighbor list builds = 7770
Dangerous builds = 0
Total wall time: 0:00:32
endTime:Mon Nov 16 03:42:35 PST 2020


Starting job in random policy..
startTime:Mon Nov 16 03:42:35 PST 2020

LAMMPS (20 Apr 2018)
OMP_NUM_THREADS environment is not set. Defaulting to 1 thread. (../comm.cpp:90)
  using 1 OpenMP thread(s) per MPI task
Lattice spacing in x,y,z = 1.82574 1.82574 1.82574
Created orthogonal box = (0 0 -0.182574) to (73.0297 73.0297 0.182574)
  64 by 34 by 1 MPI processor grid
Created 3200 atoms
  Time spent = 0.00466204 secs
Neighbor list info ...
  update every 1 steps, delay 0 steps, check yes
  max neighbors/atom: 2000, page size: 100000
  master list distance cutoff = 2.8
  ghost atom cutoff = 2.8
  binsize = 1.4, bins = 53 53 1
  1 neighbor lists, perpetual/occasional/extra = 1 0 0
  (1) pair lj/cut, perpetual
      attributes: half, newton on
      pair build: half/bin/atomonly/newton
      stencil: half/bin/2d/newton
      bin: standard
Setting up Verlet run ...
  Unit style    : lj
  Current step  : 0
  Time step     : 0.005
Per MPI rank memory allocation (min/avg/max) = 2.702 | 2.797 | 2.952 Mbytes
Step Temp E_pair E_mol TotEng Press 
       0            1     -1.56492            0   -0.5652325   -1.5346995 
    1000    1.0063515   -1.5732592            0  -0.56722209    1.0061204 
    2000   0.95792094   -1.5781469            0  -0.62052531   0.96571772 
    3000   0.98401573    -1.588743            0  -0.60503472   0.97094222 
    4000   0.99740124   -1.5757024            0  -0.57861287   0.99998732 
    5000    1.0348886   -1.6022633            0  -0.56769811   0.97795086 
Loop time of 2.29869 on 2176 procs for 5000 steps with 3200 atoms

Performance: 939667.469 tau/day, 2175.156 timesteps/s
97.7% CPU use with 2176 MPI tasks x 1 OpenMP threads

MPI task timing breakdown:
Section |  min time  |  avg time  |  max time  |%varavg| %total
---------------------------------------------------------------
Pair    | 0.012042   | 0.014607   | 0.019264   |   0.6 |  0.64
Neigh   | 0.0047016  | 0.0054323  | 0.0082104  |   0.6 |  0.24
Comm    | 0.64559    | 0.84796    | 1.2809     |  13.6 | 36.89
Output  | 0.0030963  | 0.0033616  | 0.0035107  |   0.1 |  0.15
Modify  | 0.03061    | 0.033377   | 0.045066   |   0.7 |  1.45
Other   |            | 1.394      |            |       | 60.64

Nlocal:    1.47059 ave 4 max 0 min
Histogram: 156 0 945 0 0 972 0 101 0 2
Nghost:    29.7891 ave 39 max 22 min
Histogram: 19 78 286 246 701 556 148 126 15 1
Neighs:    10.324 ave 33 max 0 min
Histogram: 178 392 523 392 399 200 61 27 1 3

Total # of neighbors = 22465
Ave neighs/atom = 7.02031
Neighbor list builds = 601
Dangerous builds = 0
Setting up Verlet run ...
  Unit style    : lj
  Current step  : 0
  Time step     : 0.005
Per MPI rank memory allocation (min/avg/max) = 3.327 | 3.327 | 3.327 Mbytes
Step Temp c_vacf[4] v_vacf 
       0    1.0348886    2.0691304            0 
    5000      1.01618  0.010970342    0.3062452 
   10000    1.0210865 0.0018251732    0.3939561 
   15000    1.0201407 -0.0051204578   0.50191967 
   20000    1.0169872  0.032935727   0.54134779 
   25000    1.0117798  -0.01580966     0.615112 
   30000    1.0284167 -0.0089673686   0.71447644 
   35000    1.0072394 -0.027346896   0.70401385 
   40000    1.0180797 -0.024551015   0.74660961 
   45000    1.0221593 -0.0059135592   0.75865906 
[...]
Per MPI rank memory allocation (min/avg/max) = 3.327 | 3.327 | 3.327 Mbytes
Step Temp c_vacf[4] v_vacf 
       0    1.0348886    2.0691304            0 
    5000      1.01618  0.010970342    0.3062452 
   10000    1.0210865 0.0018251732    0.3939561 
   15000    1.0201407 -0.0051204578   0.50191967 
   20000    1.0169872  0.032935727   0.54134779 
   25000    1.0117798  -0.01580966     0.615112 
   30000    1.0284167 -0.0089673686   0.71447644 
   35000    1.0072394 -0.027346896   0.70401385 
   40000    1.0180797 -0.024551015   0.74660961 
   45000    1.0221593 -0.0059135592   0.75865906 
   50000    1.0150177  -0.04225538   0.87981449 
   55000    1.0190131 -0.039301263   0.91325887 
   60000    1.0153908  0.068561184   0.90266577 
Loop time of 35.6034 on 2176 procs for 60000 steps with 3200 atoms

Performance: 728020.413 tau/day, 1685.232 timesteps/s
98.3% CPU use with 2176 MPI tasks x 1 OpenMP threads

MPI task timing breakdown:
Section |  min time  |  avg time  |  max time  |%varavg| %total
---------------------------------------------------------------
Pair    | 0.16537    | 0.17425    | 0.24233    |   1.8 |  0.49
Neigh   | 0.06481    | 0.069923   | 0.10564    |   2.1 |  0.20
Comm    | 7.5794     | 8.8402     | 12.444     |  31.7 | 24.83
Output  | 0.0116     | 0.012714   | 0.013889   |   0.4 |  0.04
Modify  | 15.324     | 19         | 20.252     |  21.6 | 53.37
Other   |            | 7.507      |            |       | 21.08

Nlocal:    1.47059 ave 4 max 0 min
Histogram: 157 0 936 0 0 987 0 94 0 2
Nghost:    29.9081 ave 38 max 20 min
Histogram: 9 24 120 260 239 579 567 278 84 16
Neighs:    10.284 ave 33 max 0 min
Histogram: 171 403 492 438 388 205 50 19 8 2

Total # of neighbors = 22378
Ave neighs/atom = 6.99313
Neighbor list builds = 7770
Dangerous builds = 0
Total wall time: 0:00:37
endTime:Mon Nov 16 07:07:12 PST 2020


====================
iteration 19
Starting job in nedd policy..
startTime:Mon Nov 16 07:15:00 PST 2020

LAMMPS (20 Apr 2018)
OMP_NUM_THREADS environment is not set. Defaulting to 1 thread. (../comm.cpp:90)
  using 1 OpenMP thread(s) per MPI task
Lattice spacing in x,y,z = 1.82574 1.82574 1.82574
Created orthogonal box = (0 0 -0.182574) to (73.0297 73.0297 0.182574)
  64 by 34 by 1 MPI processor grid
Created 3200 atoms
  Time spent = 0.0149519 secs
Neighbor list info ...
  update every 1 steps, delay 0 steps, check yes
  max neighbors/atom: 2000, page size: 100000
  master list distance cutoff = 2.8
  ghost atom cutoff = 2.8
  binsize = 1.4, bins = 53 53 1
  1 neighbor lists, perpetual/occasional/extra = 1 0 0
  (1) pair lj/cut, perpetual
      attributes: half, newton on
      pair build: half/bin/atomonly/newton
      stencil: half/bin/2d/newton
      bin: standard
Setting up Verlet run ...
  Unit style    : lj
  Current step  : 0
  Time step     : 0.005
Per MPI rank memory allocation (min/avg/max) = 2.702 | 2.797 | 2.952 Mbytes
Step Temp E_pair E_mol TotEng Press 
       0            1     -1.56492            0   -0.5652325   -1.5346995 
    1000    1.0063515   -1.5732592            0  -0.56722209    1.0061204 
    2000   0.95792094   -1.5781469            0  -0.62052531   0.96571772 
    3000   0.98401573    -1.588743            0  -0.60503472   0.97094222 
    4000   0.99740124   -1.5757024            0  -0.57861287   0.99998732 
    5000    1.0348886   -1.6022633            0  -0.56769811   0.97795086 
Loop time of 1.99981 on 2176 procs for 5000 steps with 3200 atoms

Performance: 1080102.051 tau/day, 2500.236 timesteps/s
97.4% CPU use with 2176 MPI tasks x 1 OpenMP threads

MPI task timing breakdown:
Section |  min time  |  avg time  |  max time  |%varavg| %total
---------------------------------------------------------------
Pair    | 0.011986   | 0.014605   | 0.020745   |   0.6 |  0.73
Neigh   | 0.0046959  | 0.0054094  | 0.0083303  |   0.6 |  0.27
Comm    | 0.63556    | 0.83123    | 1.1969     |  13.2 | 41.57
Output  | 0.004612   | 0.0052604  | 0.0056713  |   0.5 |  0.26
Modify  | 0.030738   | 0.033338   | 0.042786   |   0.7 |  1.67
Other   |            | 1.11       |            |       | 55.50

Nlocal:    1.47059 ave 4 max 0 min
Histogram: 156 0 945 0 0 972 0 101 0 2
Nghost:    29.7891 ave 39 max 22 min
Histogram: 19 78 286 246 701 556 148 126 15 1
Neighs:    10.324 ave 33 max 0 min
Histogram: 178 392 523 392 399 200 61 27 1 3

Total # of neighbors = 22465
Ave neighs/atom = 7.02031
Neighbor list builds = 601
Dangerous builds = 0
Setting up Verlet run ...
  Unit style    : lj
  Current step  : 0
  Time step     : 0.005
Per MPI rank memory allocation (min/avg/max) = 3.327 | 3.327 | 3.327 Mbytes
Step Temp c_vacf[4] v_vacf 
       0    1.0348886    2.0691304            0 
    5000      1.01618  0.010970342    0.3062452 
   10000    1.0210865 0.0018251732    0.3939561 
   15000    1.0201407 -0.0051204578   0.50191967 
   20000    1.0169872  0.032935727   0.54134779 
   25000    1.0117798  -0.01580966     0.615112 
   30000    1.0284167 -0.0089673686   0.71447644 
   35000    1.0072394 -0.027346896   0.70401385 
   40000    1.0180797 -0.024551015   0.74660961 
   45000    1.0221593 -0.0059135592   0.75865906 
   50000    1.0150177  -0.04225538   0.87981449 
   55000    1.0190131 -0.039301263   0.91325887 
   60000    1.0153908  0.068561184   0.90266577 
Loop time of 43.3596 on 2176 procs for 60000 steps with 3200 atoms

Performance: 597791.688 tau/day, 1383.777 timesteps/s
98.6% CPU use with 2176 MPI tasks x 1 OpenMP threads

MPI task timing breakdown:
Section |  min time  |  avg time  |  max time  |%varavg| %total
---------------------------------------------------------------
Pair    | 0.16567    | 0.17588    | 0.265      |   2.3 |  0.41
Neigh   | 0.064406   | 0.070279   | 0.1112     |   2.2 |  0.16
Comm    | 7.9729     | 9.8087     | 13.673     |  42.1 | 22.62
Output  | 0.01276    | 0.013253   | 0.014288   |   0.2 |  0.03
Modify  | 19.47      | 23.402     | 25.246     |  27.2 | 53.97
Other   |            | 9.89       |            |       | 22.81

Nlocal:    1.47059 ave 4 max 0 min
Histogram: 157 0 936 0 0 987 0 94 0 2
Nghost:    29.9081 ave 38 max 20 min
Histogram: 9 24 120 260 239 579 567 278 84 16
Neighs:    10.284 ave 33 max 0 min
Histogram: 171 403 492 438 388 205 50 19 8 2

Total # of neighbors = 22378
Ave neighs/atom = 6.99313
Neighbor list builds = 7770
Dangerous builds = 0
Total wall time: 0:00:45
endTime:Mon Nov 16 07:15:59 PST 2020


Starting job in lowerRouterStall policy..
startTime:Mon Nov 16 07:15:59 PST 2020

LAMMPS (20 Apr 2018)
OMP_NUM_THREADS environment is not set. Defaulting to 1 thread. (../comm.cpp:90)
  using 1 OpenMP thread(s) per MPI task
Lattice spacing in x,y,z = 1.82574 1.82574 1.82574
Created orthogonal box = (0 0 -0.182574) to (73.0297 73.0297 0.182574)
  64 by 34 by 1 MPI processor grid
Created 3200 atoms
  Time spent = 0.013818 secs
Neighbor list info ...
  update every 1 steps, delay 0 steps, check yes
  max neighbors/atom: 2000, page size: 100000
  master list distance cutoff = 2.8
  ghost atom cutoff = 2.8
  binsize = 1.4, bins = 53 53 1
  1 neighbor lists, perpetual/occasional/extra = 1 0 0
  (1) pair lj/cut, perpetual
      attributes: half, newton on
      pair build: half/bin/atomonly/newton
      stencil: half/bin/2d/newton
      bin: standard
Setting up Verlet run ...
  Unit style    : lj
  Current step  : 0
  Time step     : 0.005
Per MPI rank memory allocation (min/avg/max) = 2.702 | 2.797 | 2.952 Mbytes
Step Temp E_pair E_mol TotEng Press 
       0            1     -1.56492            0   -0.5652325   -1.5346995 
    1000    1.0063515   -1.5732592            0  -0.56722209    1.0061204 
    2000   0.95792094   -1.5781469            0  -0.62052531   0.96571772 
    3000   0.98401573    -1.588743            0  -0.60503472   0.97094222 
    4000   0.99740124   -1.5757024            0  -0.57861287   0.99998732 
    5000    1.0348886   -1.6022633            0  -0.56769811   0.97795086 
Loop time of 3.56081 on 2176 procs for 5000 steps with 3200 atoms

Performance: 606604.272 tau/day, 1404.177 timesteps/s
98.4% CPU use with 2176 MPI tasks x 1 OpenMP threads

MPI task timing breakdown:
Section |  min time  |  avg time  |  max time  |%varavg| %total
---------------------------------------------------------------
Pair    | 0.012164   | 0.014675   | 0.022193   |   0.8 |  0.41
Neigh   | 0.0047221  | 0.0054814  | 0.0083485  |   0.6 |  0.15
Comm    | 0.68632    | 0.98902    | 2.3435     |  43.8 | 27.78
Output  | 0.003468   | 0.0058458  | 0.0065644  |   0.8 |  0.16
Modify  | 0.030737   | 0.033552   | 0.046403   |   0.9 |  0.94
Other   |            | 2.512      |            |       | 70.55

Nlocal:    1.47059 ave 4 max 0 min
Histogram: 156 0 945 0 0 972 0 101 0 2
Nghost:    29.7891 ave 39 max 22 min
Histogram: 19 78 286 246 701 556 148 126 15 1
Neighs:    10.324 ave 33 max 0 min
Histogram: 178 392 523 392 399 200 61 27 1 3

Total # of neighbors = 22465
Ave neighs/atom = 7.02031
Neighbor list builds = 601
Dangerous builds = 0
Setting up Verlet run ...
  Unit style    : lj
  Current step  : 0
  Time step     : 0.005
Per MPI rank memory allocation (min/avg/max) = 3.327 | 3.327 | 3.327 Mbytes
Step Temp c_vacf[4] v_vacf 
       0    1.0348886    2.0691304            0 
    5000      1.01618  0.010970342    0.3062452 
   10000    1.0210865 0.0018251732    0.3939561 
   15000    1.0201407 -0.0051204578   0.50191967 
   20000    1.0169872  0.032935727   0.54134779 
   25000    1.0117798  -0.01580966     0.615112 
   30000    1.0284167 -0.0089673686   0.71447644 
   35000    1.0072394 -0.027346896   0.70401385 
   40000    1.0180797 -0.024551015   0.74660961 
   45000    1.0221593 -0.0059135592   0.75865906 
   50000    1.0150177  -0.04225538   0.87981449 
   55000    1.0190131 -0.039301263   0.91325887 
   60000    1.0153908  0.068561184   0.90266577 
Loop time of 67.9581 on 2176 procs for 60000 steps with 3200 atoms

Performance: 381411.325 tau/day, 882.897 timesteps/s
99.0% CPU use with 2176 MPI tasks x 1 OpenMP threads

MPI task timing breakdown:
Section |  min time  |  avg time  |  max time  |%varavg| %total
---------------------------------------------------------------
Pair    | 0.16507    | 0.17675    | 0.27905    |   2.8 |  0.26
Neigh   | 0.065235   | 0.071069   | 0.10753    |   2.3 |  0.10
Comm    | 9.1716     | 13.164     | 26.925     | 127.6 | 19.37
Output  | 0.014798   | 0.015265   | 0.016264   |   0.2 |  0.02
Modify  | 27.504     | 41.266     | 45.248     |  72.0 | 60.72
Other   |            | 13.26      |            |       | 19.52

Nlocal:    1.47059 ave 4 max 0 min
Histogram: 157 0 936 0 0 987 0 94 0 2
Nghost:    29.9081 ave 38 max 20 min
Histogram: 9 24 120 260 239 579 567 278 84 16
Neighs:    10.284 ave 33 max 0 min
Histogram: 171 403 492 438 388 205 50 19 8 2

Total # of neighbors = 22378
Ave neighs/atom = 6.99313
Neighbor list builds = 7770
Dangerous builds = 0
Total wall time: 0:01:11
endTime:Mon Nov 16 07:17:28 PST 2020


Starting job in fewerSwitch policy..
startTime:Mon Nov 16 07:17:28 PST 2020

LAMMPS (20 Apr 2018)
OMP_NUM_THREADS environment is not set. Defaulting to 1 thread. (../comm.cpp:90)
  using 1 OpenMP thread(s) per MPI task
Lattice spacing in x,y,z = 1.82574 1.82574 1.82574
Created orthogonal box = (0 0 -0.182574) to (73.0297 73.0297 0.182574)
  64 by 34 by 1 MPI processor grid
Created 3200 atoms
  Time spent = 0.00672793 secs
Neighbor list info ...
  update every 1 steps, delay 0 steps, check yes
  max neighbors/atom: 2000, page size: 100000
  master list distance cutoff = 2.8
  ghost atom cutoff = 2.8
  binsize = 1.4, bins = 53 53 1
  1 neighbor lists, perpetual/occasional/extra = 1 0 0
  (1) pair lj/cut, perpetual
      attributes: half, newton on
      pair build: half/bin/atomonly/newton
      stencil: half/bin/2d/newton
      bin: standard
Setting up Verlet run ...
  Unit style    : lj
  Current step  : 0
  Time step     : 0.005
Per MPI rank memory allocation (min/avg/max) = 2.702 | 2.797 | 2.952 Mbytes
Step Temp E_pair E_mol TotEng Press 
       0            1     -1.56492            0   -0.5652325   -1.5346995 
    1000    1.0063515   -1.5732592            0  -0.56722209    1.0061204 
    2000   0.95792094   -1.5781469            0  -0.62052531   0.96571772 
    3000   0.98401573    -1.588743            0  -0.60503472   0.97094222 
    4000   0.99740124   -1.5757024            0  -0.57861287   0.99998732 
    5000    1.0348886   -1.6022633            0  -0.56769811   0.97795086 
Loop time of 2.07291 on 2176 procs for 5000 steps with 3200 atoms

Performance: 1042014.506 tau/day, 2412.071 timesteps/s
97.5% CPU use with 2176 MPI tasks x 1 OpenMP threads

MPI task timing breakdown:
Section |  min time  |  avg time  |  max time  |%varavg| %total
---------------------------------------------------------------
Pair    | 0.012177   | 0.014598   | 0.019786   |   0.6 |  0.70
Neigh   | 0.0046515  | 0.0054228  | 0.0083129  |   0.6 |  0.26
Comm    | 0.65127    | 0.7992     | 1.1966     |  11.8 | 38.55
Output  | 0.003443   | 0.0038905  | 0.004096   |   0.2 |  0.19
Modify  | 0.030891   | 0.033324   | 0.04442    |   0.7 |  1.61
Other   |            | 1.216      |            |       | 58.68

Nlocal:    1.47059 ave 4 max 0 min
Histogram: 156 0 945 0 0 972 0 101 0 2
Nghost:    29.7891 ave 39 max 22 min
Histogram: 19 78 286 246 701 556 148 126 15 1
Neighs:    10.324 ave 33 max 0 min
Histogram: 178 392 523 392 399 200 61 27 1 3

Total # of neighbors = 22465
Ave neighs/atom = 7.02031
Neighbor list builds = 601
Dangerous builds = 0
Setting up Verlet run ...
  Unit style    : lj
  Current step  : 0
  Time step     : 0.005
Per MPI rank memory allocation (min/avg/max) = 3.327 | 3.327 | 3.327 Mbytes
Step Temp c_vacf[4] v_vacf 
       0    1.0348886    2.0691304            0 
    5000      1.01618  0.010970342    0.3062452 
   10000    1.0210865 0.0018251732    0.3939561 
   15000    1.0201407 -0.0051204578   0.50191967 
   20000    1.0169872  0.032935727   0.54134779 
   25000    1.0117798  -0.01580966     0.615112 
   30000    1.0284167 -0.0089673686   0.71447644 
   35000    1.0072394 -0.027346896   0.70401385 
   40000    1.0180797 -0.024551015   0.74660961 
   45000    1.0221593 -0.0059135592   0.75865906 
   50000    1.0150177  -0.04225538   0.87981449 
   55000    1.0190131 -0.039301263   0.91325887 
   60000    1.0153908  0.068561184   0.90266577 
Loop time of 69.6985 on 2176 procs for 60000 steps with 3200 atoms

Performance: 371887.671 tau/day, 860.851 timesteps/s
99.0% CPU use with 2176 MPI tasks x 1 OpenMP threads

MPI task timing breakdown:
Section |  min time  |  avg time  |  max time  |%varavg| %total
---------------------------------------------------------------
Pair    | 0.16466    | 0.1765     | 0.26316    |   2.8 |  0.25
Neigh   | 0.065304   | 0.070792   | 0.11067    |   2.3 |  0.10
Comm    | 9.5117     | 13.938     | 23.588     | 104.6 | 20.00
Output  | 0.012929   | 0.013597   | 0.014601   |   0.2 |  0.02
Modify  | 32.388     | 42.116     | 46.715     |  60.6 | 60.43
Other   |            | 13.38      |            |       | 19.20

Nlocal:    1.47059 ave 4 max 0 min
Histogram: 157 0 936 0 0 987 0 94 0 2
Nghost:    29.9081 ave 38 max 20 min
Histogram: 9 24 120 260 239 579 567 278 84 16
Neighs:    10.284 ave 33 max 0 min
Histogram: 171 403 492 438 388 205 50 19 8 2

Total # of neighbors = 22378
Ave neighs/atom = 6.99313
Neighbor list builds = 7770
Dangerous builds = 0
Total wall time: 0:01:11
endTime:Mon Nov 16 07:18:51 PST 2020


Starting job in random policy..
startTime:Mon Nov 16 07:18:51 PST 2020

LAMMPS (20 Apr 2018)
OMP_NUM_THREADS environment is not set. Defaulting to 1 thread. (../comm.cpp:90)
  using 1 OpenMP thread(s) per MPI task
Lattice spacing in x,y,z = 1.82574 1.82574 1.82574
Created orthogonal box = (0 0 -0.182574) to (73.0297 73.0297 0.182574)
  64 by 34 by 1 MPI processor grid
Created 3200 atoms
  Time spent = 0.00595593 secs
Neighbor list info ...
  update every 1 steps, delay 0 steps, check yes
  max neighbors/atom: 2000, page size: 100000
  master list distance cutoff = 2.8
  ghost atom cutoff = 2.8
  binsize = 1.4, bins = 53 53 1
  1 neighbor lists, perpetual/occasional/extra = 1 0 0
  (1) pair lj/cut, perpetual
      attributes: half, newton on
      pair build: half/bin/atomonly/newton
      stencil: half/bin/2d/newton
      bin: standard
Setting up Verlet run ...
  Unit style    : lj
  Current step  : 0
  Time step     : 0.005
Per MPI rank memory allocation (min/avg/max) = 2.702 | 2.797 | 2.952 Mbytes
Step Temp E_pair E_mol TotEng Press 
       0            1     -1.56492            0   -0.5652325   -1.5346995 
    1000    1.0063515   -1.5732592            0  -0.56722209    1.0061204 
    2000   0.95792094   -1.5781469            0  -0.62052531   0.96571772 
    3000   0.98401573    -1.588743            0  -0.60503472   0.97094222 
    4000   0.99740124   -1.5757024            0  -0.57861287   0.99998732 
    5000    1.0348886   -1.6022633            0  -0.56769811   0.97795086 
Loop time of 3.79539 on 2176 procs for 5000 steps with 3200 atoms

Performance: 569111.882 tau/day, 1317.389 timesteps/s
98.4% CPU use with 2176 MPI tasks x 1 OpenMP threads

MPI task timing breakdown:
Section |  min time  |  avg time  |  max time  |%varavg| %total
---------------------------------------------------------------
Pair    | 0.01214    | 0.014591   | 0.02169    |   0.8 |  0.38
Neigh   | 0.0046711  | 0.005472   | 0.0086894  |   0.6 |  0.14
Comm    | 0.92725    | 1.4473     | 2.3418     |  26.1 | 38.13
Output  | 0.007967   | 0.0088199  | 0.010418   |   0.6 |  0.23
Modify  | 0.031043   | 0.033664   | 0.046549   |   1.0 |  0.89
Other   |            | 2.286      |            |       | 60.22

Nlocal:    1.47059 ave 4 max 0 min
Histogram: 156 0 945 0 0 972 0 101 0 2
Nghost:    29.7891 ave 39 max 22 min
Histogram: 19 78 286 246 701 556 148 126 15 1
Neighs:    10.324 ave 33 max 0 min
Histogram: 178 392 523 392 399 200 61 27 1 3

Total # of neighbors = 22465
Ave neighs/atom = 7.02031
Neighbor list builds = 601
Dangerous builds = 0
Setting up Verlet run ...
  Unit style    : lj
  Current step  : 0
  Time step     : 0.005
Per MPI rank memory allocation (min/avg/max) = 3.327 | 3.327 | 3.327 Mbytes
Step Temp c_vacf[4] v_vacf 
       0    1.0348886    2.0691304            0 
    5000      1.01618  0.010970342    0.3062452 
   10000    1.0210865 0.0018251732    0.3939561 
   15000    1.0201407 -0.0051204578   0.50191967 
   20000    1.0169872  0.032935727   0.54134779 
   25000    1.0117798  -0.01580966     0.615112 
   30000    1.0284167 -0.0089673686   0.71447644 
   35000    1.0072394 -0.027346896   0.70401385 
   40000    1.0180797 -0.024551015   0.74660961 
   45000    1.0221593 -0.0059135592   0.75865906 
   50000    1.0150177  -0.04225538   0.87981449 
   55000    1.0190131 -0.039301263   0.91325887 
   60000    1.0153908  0.068561184   0.90266577 
Loop time of 54.9152 on 2176 procs for 60000 steps with 3200 atoms

Performance: 472000.050 tau/day, 1092.593 timesteps/s
98.8% CPU use with 2176 MPI tasks x 1 OpenMP threads

MPI task timing breakdown:
Section |  min time  |  avg time  |  max time  |%varavg| %total
---------------------------------------------------------------
Pair    | 0.16585    | 0.17528    | 0.26426    |   2.5 |  0.32
Neigh   | 0.06497    | 0.070488   | 0.10775    |   2.3 |  0.13
Comm    | 9.299      | 12.263     | 17.972     |  53.9 | 22.33
Output  | 0.012604   | 0.013803   | 0.01507    |   0.4 |  0.03
Modify  | 24.427     | 30.197     | 33.184     |  34.6 | 54.99
Other   |            | 12.2       |            |       | 22.21

Nlocal:    1.47059 ave 4 max 0 min
Histogram: 157 0 936 0 0 987 0 94 0 2
Nghost:    29.9081 ave 38 max 20 min
Histogram: 9 24 120 260 239 579 567 278 84 16
Neighs:    10.284 ave 33 max 0 min
Histogram: 171 403 492 438 388 205 50 19 8 2

Total # of neighbors = 22378
Ave neighs/atom = 6.99313
Neighbor list builds = 7770
Dangerous builds = 0
Total wall time: 0:00:58
endTime:Mon Nov 16 07:19:58 PST 2020


Starting job in antinedd policy..
startTime:Mon Nov 16 07:19:58 PST 2020

