Starting..
====================
iteration 0
Starting job in nedd policy..
startTime:Mon Nov 16 12:57:52 PST 2020

LAMMPS (20 Apr 2018)
OMP_NUM_THREADS environment is not set. Defaulting to 1 thread. (../comm.cpp:90)
  using 1 OpenMP thread(s) per MPI task
Lattice spacing in x,y,z = 1.82574 1.82574 1.82574
Created orthogonal box = (0 0 -0.182574) to (73.0297 73.0297 0.182574)
  64 by 34 by 1 MPI processor grid
Created 3200 atoms
  Time spent = 0.00448489 secs
Neighbor list info ...
  update every 1 steps, delay 0 steps, check yes
  max neighbors/atom: 2000, page size: 100000
  master list distance cutoff = 2.8
  ghost atom cutoff = 2.8
  binsize = 1.4, bins = 53 53 1
  1 neighbor lists, perpetual/occasional/extra = 1 0 0
  (1) pair lj/cut, perpetual
      attributes: half, newton on
      pair build: half/bin/atomonly/newton
      stencil: half/bin/2d/newton
      bin: standard
Setting up Verlet run ...
  Unit style    : lj
  Current step  : 0
  Time step     : 0.005
Per MPI rank memory allocation (min/avg/max) = 2.702 | 2.797 | 2.952 Mbytes
Step Temp E_pair E_mol TotEng Press 
       0            1     -1.56492            0   -0.5652325   -1.5346995 
    1000    1.0063515   -1.5732592            0  -0.56722209    1.0061204 
    2000   0.95792094   -1.5781469            0  -0.62052531   0.96571772 
    3000   0.98401573    -1.588743            0  -0.60503472   0.97094222 
    4000   0.99740124   -1.5757024            0  -0.57861287   0.99998732 
    5000    1.0348886   -1.6022633            0  -0.56769811   0.97795086 
Loop time of 1.76179 on 2176 procs for 5000 steps with 3200 atoms

Performance: 1226023.152 tau/day, 2838.017 timesteps/s
97.1% CPU use with 2176 MPI tasks x 1 OpenMP threads

MPI task timing breakdown:
Section |  min time  |  avg time  |  max time  |%varavg| %total
---------------------------------------------------------------
Pair    | 0.012316   | 0.014621   | 0.019042   |   0.6 |  0.83
Neigh   | 0.0047081  | 0.0053959  | 0.0082779  |   0.6 |  0.31
Comm    | 0.63404    | 0.73932    | 0.95772    |   7.0 | 41.96
Output  | 0.0027461  | 0.0030231  | 0.0031772  |   0.1 |  0.17
Modify  | 0.030861   | 0.033519   | 0.04368    |   0.6 |  1.90
Other   |            | 0.9659     |            |       | 54.83

Nlocal:    1.47059 ave 4 max 0 min
Histogram: 156 0 945 0 0 972 0 101 0 2
Nghost:    29.7891 ave 39 max 22 min
Histogram: 19 78 286 246 701 556 148 126 15 1
Neighs:    10.324 ave 33 max 0 min
Histogram: 178 392 523 392 399 200 61 27 1 3

Total # of neighbors = 22465
Ave neighs/atom = 7.02031
Neighbor list builds = 601
Dangerous builds = 0
Setting up Verlet run ...
  Unit style    : lj
  Current step  : 0
  Time step     : 0.005
Per MPI rank memory allocation (min/avg/max) = 3.327 | 3.327 | 3.327 Mbytes
Step Temp c_vacf[4] v_vacf 
       0    1.0348886    2.0691304            0 
    5000      1.01618  0.010970342    0.3062452 
   10000    1.0210865 0.0018251732    0.3939561 
   15000    1.0201407 -0.0051204578   0.50191967 
   20000    1.0169872  0.032935727   0.54134779 
   25000    1.0117798  -0.01580966     0.615112 
   30000    1.0284167 -0.0089673686   0.71447644 
   35000    1.0072394 -0.027346896   0.70401385 
   40000    1.0180797 -0.024551015   0.74660961 
   45000    1.0221593 -0.0059135592   0.75865906 
   50000    1.0150177  -0.04225538   0.87981449 
   55000    1.0190131 -0.039301263   0.91325887 
   60000    1.0153908  0.068561184   0.90266577 
Loop time of 32.7202 on 2176 procs for 60000 steps with 3200 atoms

Performance: 792171.641 tau/day, 1833.731 timesteps/s
98.2% CPU use with 2176 MPI tasks x 1 OpenMP threads

MPI task timing breakdown:
Section |  min time  |  avg time  |  max time  |%varavg| %total
---------------------------------------------------------------
Pair    | 0.16803    | 0.1757     | 0.24187    |   1.7 |  0.54
Neigh   | 0.06485    | 0.069879   | 0.10615    |   2.2 |  0.21
Comm    | 7.4755     | 8.6182     | 10.789     |  21.6 | 26.34
Output  | 0.010469   | 0.012508   | 0.013464   |   0.4 |  0.04
Modify  | 14.901     | 17.151     | 18.307     |  15.3 | 52.42
Other   |            | 6.693      |            |       | 20.45

Nlocal:    1.47059 ave 4 max 0 min
Histogram: 157 0 936 0 0 987 0 94 0 2
Nghost:    29.9081 ave 38 max 20 min
Histogram: 9 24 120 260 239 579 567 278 84 16
Neighs:    10.284 ave 33 max 0 min
Histogram: 171 403 492 438 388 205 50 19 8 2

Total # of neighbors = 22378
Ave neighs/atom = 6.99313
Neighbor list builds = 7770
Dangerous builds = 0
Total wall time: 0:00:34
endTime:Mon Nov 16 12:58:38 PST 2020


Starting job in lowerRouterStall policy..
startTime:Mon Nov 16 12:58:38 PST 2020

LAMMPS (20 Apr 2018)
OMP_NUM_THREADS environment is not set. Defaulting to 1 thread. (../comm.cpp:90)
  using 1 OpenMP thread(s) per MPI task
Lattice spacing in x,y,z = 1.82574 1.82574 1.82574
Created orthogonal box = (0 0 -0.182574) to (73.0297 73.0297 0.182574)
  64 by 34 by 1 MPI processor grid
Created 3200 atoms
  Time spent = 0.00765991 secs
Neighbor list info ...
  update every 1 steps, delay 0 steps, check yes
  max neighbors/atom: 2000, page size: 100000
  master list distance cutoff = 2.8
  ghost atom cutoff = 2.8
  binsize = 1.4, bins = 53 53 1
  1 neighbor lists, perpetual/occasional/extra = 1 0 0
  (1) pair lj/cut, perpetual
      attributes: half, newton on
      pair build: half/bin/atomonly/newton
      stencil: half/bin/2d/newton
      bin: standard
Setting up Verlet run ...
  Unit style    : lj
  Current step  : 0
  Time step     : 0.005
Per MPI rank memory allocation (min/avg/max) = 2.702 | 2.797 | 2.952 Mbytes
Step Temp E_pair E_mol TotEng Press 
       0            1     -1.56492            0   -0.5652325   -1.5346995 
    1000    1.0063515   -1.5732592            0  -0.56722209    1.0061204 
    2000   0.95792094   -1.5781469            0  -0.62052531   0.96571772 
    3000   0.98401573    -1.588743            0  -0.60503472   0.97094222 
    4000   0.99740124   -1.5757024            0  -0.57861287   0.99998732 
    5000    1.0348886   -1.6022633            0  -0.56769811   0.97795086 
Loop time of 2.08183 on 2176 procs for 5000 steps with 3200 atoms

Performance: 1037546.355 tau/day, 2401.728 timesteps/s
97.5% CPU use with 2176 MPI tasks x 1 OpenMP threads

MPI task timing breakdown:
Section |  min time  |  avg time  |  max time  |%varavg| %total
---------------------------------------------------------------
Pair    | 0.011961   | 0.014649   | 0.021217   |   0.6 |  0.70
Neigh   | 0.0047107  | 0.0054235  | 0.0081713  |   0.6 |  0.26
Comm    | 0.64299    | 0.80364    | 1.0192     |   8.6 | 38.60
Output  | 0.0031037  | 0.0035904  | 0.0037582  |   0.1 |  0.17
Modify  | 0.030757   | 0.033528   | 0.044716   |   0.7 |  1.61
Other   |            | 1.221      |            |       | 58.65

Nlocal:    1.47059 ave 4 max 0 min
Histogram: 156 0 945 0 0 972 0 101 0 2
Nghost:    29.7891 ave 39 max 22 min
Histogram: 19 78 286 246 701 556 148 126 15 1
Neighs:    10.324 ave 33 max 0 min
Histogram: 178 392 523 392 399 200 61 27 1 3

Total # of neighbors = 22465
Ave neighs/atom = 7.02031
Neighbor list builds = 601
Dangerous builds = 0
Setting up Verlet run ...
  Unit style    : lj
  Current step  : 0
  Time step     : 0.005
Per MPI rank memory allocation (min/avg/max) = 3.327 | 3.327 | 3.327 Mbytes
Step Temp c_vacf[4] v_vacf 
       0    1.0348886    2.0691304            0 
    5000      1.01618  0.010970342    0.3062452 
   10000    1.0210865 0.0018251732    0.3939561 
   15000    1.0201407 -0.0051204578   0.50191967 
   20000    1.0169872  0.032935727   0.54134779 
   25000    1.0117798  -0.01580966     0.615112 
   30000    1.0284167 -0.0089673686   0.71447644 
   35000    1.0072394 -0.027346896   0.70401385 
   40000    1.0180797 -0.024551015   0.74660961 
   45000    1.0221593 -0.0059135592   0.75865906 
   50000    1.0150177  -0.04225538   0.87981449 
   55000    1.0190131 -0.039301263   0.91325887 
   60000    1.0153908  0.068561184   0.90266577 
Loop time of 38.0507 on 2176 procs for 60000 steps with 3200 atoms

Performance: 681196.354 tau/day, 1576.843 timesteps/s
98.4% CPU use with 2176 MPI tasks x 1 OpenMP threads

MPI task timing breakdown:
Section |  min time  |  avg time  |  max time  |%varavg| %total
---------------------------------------------------------------
Pair    | 0.16812    | 0.1762     | 0.25783    |   2.0 |  0.46
Neigh   | 0.065148   | 0.070195   | 0.1073     |   2.2 |  0.18
Comm    | 7.8534     | 9.4691     | 11.84      |  27.2 | 24.89
Output  | 0.010671   | 0.010951   | 0.011748   |   0.1 |  0.03
Modify  | 18.258     | 20.626     | 22.251     |  18.5 | 54.21
Other   |            | 7.699      |            |       | 20.23

Nlocal:    1.47059 ave 4 max 0 min
Histogram: 157 0 936 0 0 987 0 94 0 2
Nghost:    29.9081 ave 38 max 20 min
Histogram: 9 24 120 260 239 579 567 278 84 16
Neighs:    10.284 ave 33 max 0 min
Histogram: 171 403 492 438 388 205 50 19 8 2

Total # of neighbors = 22378
Ave neighs/atom = 6.99313
Neighbor list builds = 7770
Dangerous builds = 0
Total wall time: 0:00:40
endTime:Mon Nov 16 12:59:27 PST 2020


Starting job in fewerSwitch policy..
startTime:Mon Nov 16 12:59:27 PST 2020

LAMMPS (20 Apr 2018)
OMP_NUM_THREADS environment is not set. Defaulting to 1 thread. (../comm.cpp:90)
  using 1 OpenMP thread(s) per MPI task
Lattice spacing in x,y,z = 1.82574 1.82574 1.82574
Created orthogonal box = (0 0 -0.182574) to (73.0297 73.0297 0.182574)
  64 by 34 by 1 MPI processor grid
Created 3200 atoms
  Time spent = 0.00792789 secs
Neighbor list info ...
  update every 1 steps, delay 0 steps, check yes
  max neighbors/atom: 2000, page size: 100000
  master list distance cutoff = 2.8
  ghost atom cutoff = 2.8
  binsize = 1.4, bins = 53 53 1
  1 neighbor lists, perpetual/occasional/extra = 1 0 0
  (1) pair lj/cut, perpetual
      attributes: half, newton on
      pair build: half/bin/atomonly/newton
      stencil: half/bin/2d/newton
      bin: standard
Setting up Verlet run ...
  Unit style    : lj
  Current step  : 0
  Time step     : 0.005
Per MPI rank memory allocation (min/avg/max) = 2.702 | 2.797 | 2.952 Mbytes
Step Temp E_pair E_mol TotEng Press 
       0            1     -1.56492            0   -0.5652325   -1.5346995 
    1000    1.0063515   -1.5732592            0  -0.56722209    1.0061204 
    2000   0.95792094   -1.5781469            0  -0.62052531   0.96571772 
    3000   0.98401573    -1.588743            0  -0.60503472   0.97094222 
    4000   0.99740124   -1.5757024            0  -0.57861287   0.99998732 
    5000    1.0348886   -1.6022633            0  -0.56769811   0.97795086 
Loop time of 1.96086 on 2176 procs for 5000 steps with 3200 atoms

Performance: 1101558.125 tau/day, 2549.903 timesteps/s
97.4% CPU use with 2176 MPI tasks x 1 OpenMP threads

MPI task timing breakdown:
Section |  min time  |  avg time  |  max time  |%varavg| %total
---------------------------------------------------------------
Pair    | 0.01222    | 0.014628   | 0.019933   |   0.6 |  0.75
Neigh   | 0.0047202  | 0.0053982  | 0.0083294  |   0.6 |  0.28
Comm    | 0.68853    | 0.82696    | 1.0343     |   6.7 | 42.17
Output  | 0.0030351  | 0.0032563  | 0.0034108  |   0.1 |  0.17
Modify  | 0.030958   | 0.033539   | 0.044345   |   0.6 |  1.71
Other   |            | 1.077      |            |       | 54.93

Nlocal:    1.47059 ave 4 max 0 min
Histogram: 156 0 945 0 0 972 0 101 0 2
Nghost:    29.7891 ave 39 max 22 min
Histogram: 19 78 286 246 701 556 148 126 15 1
Neighs:    10.324 ave 33 max 0 min
Histogram: 178 392 523 392 399 200 61 27 1 3

Total # of neighbors = 22465
Ave neighs/atom = 7.02031
Neighbor list builds = 601
Dangerous builds = 0
Setting up Verlet run ...
  Unit style    : lj
  Current step  : 0
  Time step     : 0.005
Per MPI rank memory allocation (min/avg/max) = 3.327 | 3.327 | 3.327 Mbytes
Step Temp c_vacf[4] v_vacf 
       0    1.0348886    2.0691304            0 
    5000      1.01618  0.010970342    0.3062452 
   10000    1.0210865 0.0018251732    0.3939561 
   15000    1.0201407 -0.0051204578   0.50191967 
   20000    1.0169872  0.032935727   0.54134779 
   25000    1.0117798  -0.01580966     0.615112 
   30000    1.0284167 -0.0089673686   0.71447644 
   35000    1.0072394 -0.027346896   0.70401385 
   40000    1.0180797 -0.024551015   0.74660961 
   45000    1.0221593 -0.0059135592   0.75865906 
   50000    1.0150177  -0.04225538   0.87981449 
   55000    1.0190131 -0.039301263   0.91325887 
   60000    1.0153908  0.068561184   0.90266577 
Loop time of 37.6687 on 2176 procs for 60000 steps with 3200 atoms

Performance: 688104.565 tau/day, 1592.835 timesteps/s
98.4% CPU use with 2176 MPI tasks x 1 OpenMP threads

MPI task timing breakdown:
Section |  min time  |  avg time  |  max time  |%varavg| %total
---------------------------------------------------------------
Pair    | 0.16689    | 0.17601    | 0.26287    |   2.0 |  0.47
Neigh   | 0.064723   | 0.069969   | 0.10835    |   2.2 |  0.19
Comm    | 7.9817     | 9.3058     | 11.625     |  21.6 | 24.70
Output  | 0.011268   | 0.011568   | 0.012415   |   0.1 |  0.03
Modify  | 17.735     | 20.135     | 21.459     |  14.9 | 53.45
Other   |            | 7.971      |            |       | 21.16

Nlocal:    1.47059 ave 4 max 0 min
Histogram: 157 0 936 0 0 987 0 94 0 2
Nghost:    29.9081 ave 38 max 20 min
Histogram: 9 24 120 260 239 579 567 278 84 16
Neighs:    10.284 ave 33 max 0 min
Histogram: 171 403 492 438 388 205 50 19 8 2

Total # of neighbors = 22378
Ave neighs/atom = 6.99313
Neighbor list builds = 7770
Dangerous builds = 0
Total wall time: 0:00:39
endTime:Mon Nov 16 13:00:22 PST 2020


Starting job in random policy..
startTime:Mon Nov 16 13:00:22 PST 2020

LAMMPS (20 Apr 2018)
OMP_NUM_THREADS environment is not set. Defaulting to 1 thread. (../comm.cpp:90)
  using 1 OpenMP thread(s) per MPI task
Lattice spacing in x,y,z = 1.82574 1.82574 1.82574
Created orthogonal box = (0 0 -0.182574) to (73.0297 73.0297 0.182574)
  64 by 34 by 1 MPI processor grid
Created 3200 atoms
  Time spent = 0.01248 secs
Neighbor list info ...
  update every 1 steps, delay 0 steps, check yes
  max neighbors/atom: 2000, page size: 100000
  master list distance cutoff = 2.8
  ghost atom cutoff = 2.8
  binsize = 1.4, bins = 53 53 1
  1 neighbor lists, perpetual/occasional/extra = 1 0 0
  (1) pair lj/cut, perpetual
      attributes: half, newton on
      pair build: half/bin/atomonly/newton
      stencil: half/bin/2d/newton
      bin: standard
Setting up Verlet run ...
  Unit style    : lj
  Current step  : 0
  Time step     : 0.005
Per MPI rank memory allocation (min/avg/max) = 2.702 | 2.797 | 2.952 Mbytes
Step Temp E_pair E_mol TotEng Press 
       0            1     -1.56492            0   -0.5652325   -1.5346995 
    1000    1.0063515   -1.5732592            0  -0.56722209    1.0061204 
    2000   0.95792094   -1.5781469            0  -0.62052531   0.96571772 
    3000   0.98401573    -1.588743            0  -0.60503472   0.97094222 
    4000   0.99740124   -1.5757024            0  -0.57861287   0.99998732 
    5000    1.0348886   -1.6022633            0  -0.56769811   0.97795086 
Loop time of 2.49266 on 2176 procs for 5000 steps with 3200 atoms

Performance: 866543.833 tau/day, 2005.889 timesteps/s
97.8% CPU use with 2176 MPI tasks x 1 OpenMP threads

MPI task timing breakdown:
Section |  min time  |  avg time  |  max time  |%varavg| %total
---------------------------------------------------------------
Pair    | 0.012135   | 0.014686   | 0.019839   |   0.7 |  0.59
Neigh   | 0.0047596  | 0.0054397  | 0.008374   |   0.6 |  0.22
Comm    | 0.82887    | 0.96341    | 1.2019     |   7.1 | 38.65
Output  | 0.0037041  | 0.0042327  | 0.0045991  |   0.3 |  0.17
Modify  | 0.031061   | 0.033537   | 0.045406   |   0.7 |  1.35
Other   |            | 1.471      |            |       | 59.03

Nlocal:    1.47059 ave 4 max 0 min
Histogram: 156 0 945 0 0 972 0 101 0 2
Nghost:    29.7891 ave 39 max 22 min
Histogram: 19 78 286 246 701 556 148 126 15 1
Neighs:    10.324 ave 33 max 0 min
Histogram: 178 392 523 392 399 200 61 27 1 3

Total # of neighbors = 22465
Ave neighs/atom = 7.02031
Neighbor list builds = 601
Dangerous builds = 0
Setting up Verlet run ...
  Unit style    : lj
  Current step  : 0
  Time step     : 0.005
Per MPI rank memory allocation (min/avg/max) = 3.327 | 3.327 | 3.327 Mbytes
Step Temp c_vacf[4] v_vacf 
       0    1.0348886    2.0691304            0 
    5000      1.01618  0.010970342    0.3062452 
   10000    1.0210865 0.0018251732    0.3939561 
   15000    1.0201407 -0.0051204578   0.50191967 
   20000    1.0169872  0.032935727   0.54134779 
   25000    1.0117798  -0.01580966     0.615112 
   30000    1.0284167 -0.0089673686   0.71447644 
   35000    1.0072394 -0.027346896   0.70401385 
   40000    1.0180797 -0.024551015   0.74660961 
   45000    1.0221593 -0.0059135592   0.75865906 
   50000    1.0150177  -0.04225538   0.87981449 
   55000    1.0190131 -0.039301263   0.91325887 
   60000    1.0153908  0.068561184   0.90266577 
Loop time of 98.1534 on 2176 procs for 60000 steps with 3200 atoms

Performance: 264076.494 tau/day, 611.288 timesteps/s
99.2% CPU use with 2176 MPI tasks x 1 OpenMP threads

MPI task timing breakdown:
Section |  min time  |  avg time  |  max time  |%varavg| %total
---------------------------------------------------------------
Pair    | 0.1676     | 0.17837    | 0.293      |   3.7 |  0.18
Neigh   | 0.065727   | 0.071459   | 0.11426    |   2.4 |  0.07
Comm    | 13.635     | 20.262     | 28.599     |  96.1 | 20.64
Output  | 0.023159   | 0.025055   | 0.02673    |   0.6 |  0.03
Modify  | 46.625     | 55.005     | 61.628     |  58.6 | 56.04
Other   |            | 22.61      |            |       | 23.04

Nlocal:    1.47059 ave 4 max 0 min
Histogram: 157 0 936 0 0 987 0 94 0 2
Nghost:    29.9081 ave 38 max 20 min
Histogram: 9 24 120 260 239 579 567 278 84 16
Neighs:    10.284 ave 33 max 0 min
Histogram: 171 403 492 438 388 205 50 19 8 2

Total # of neighbors = 22378
Ave neighs/atom = 6.99313
Neighbor list builds = 7770
Dangerous builds = 0
Total wall time: 0:01:41
endTime:Mon Nov 16 13:02:17 PST 2020


Starting job in antinedd policy..
startTime:Mon Nov 16 13:02:17 PST 2020

LAMMPS (20 Apr 2018)
OMP_NUM_THREADS environment is not set. Defaulting to 1 thread. (../comm.cpp:90)
  using 1 OpenMP thread(s) per MPI task
Lattice spacing in x,y,z = 1.82574 1.82574 1.82574
Created orthogonal box = (0 0 -0.182574) to (73.0297 73.0297 0.182574)
  64 by 34 by 1 MPI processor grid
Created 3200 atoms
  Time spent = 0.00897813 secs
Neighbor list info ...
  update every 1 steps, delay 0 steps, check yes
  max neighbors/atom: 2000, page size: 100000
  master list distance cutoff = 2.8
  ghost atom cutoff = 2.8
  binsize = 1.4, bins = 53 53 1
  1 neighbor lists, perpetual/occasional/extra = 1 0 0
  (1) pair lj/cut, perpetual
      attributes: half, newton on
      pair build: half/bin/atomonly/newton
      stencil: half/bin/2d/newton
      bin: standard
Setting up Verlet run ...
  Unit style    : lj
  Current step  : 0
  Time step     : 0.005
Per MPI rank memory allocation (min/avg/max) = 2.702 | 2.797 | 2.952 Mbytes
Step Temp E_pair E_mol TotEng Press 
       0            1     -1.56492            0   -0.5652325   -1.5346995 
    1000    1.0063515   -1.5732592            0  -0.56722209    1.0061204 
    2000   0.95792094   -1.5781469            0  -0.62052531   0.96571772 
    3000   0.98401573    -1.588743            0  -0.60503472   0.97094222 
    4000   0.99740124   -1.5757024            0  -0.57861287   0.99998732 
    5000    1.0348886   -1.6022633            0  -0.56769811   0.97795086 
Loop time of 4.26448 on 2176 procs for 5000 steps with 3200 atoms

Performance: 506509.104 tau/day, 1172.475 timesteps/s
98.6% CPU use with 2176 MPI tasks x 1 OpenMP threads

MPI task timing breakdown:
Section |  min time  |  avg time  |  max time  |%varavg| %total
---------------------------------------------------------------
Pair    | 0.012125   | 0.014759   | 0.023014   |   0.8 |  0.35
Neigh   | 0.0047038  | 0.005507   | 0.0085564  |   0.7 |  0.13
Comm    | 0.8332     | 1.3661     | 2.6767     |  36.4 | 32.03
Output  | 0.0052028  | 0.0059307  | 0.0068431  |   0.4 |  0.14
Modify  | 0.03088    | 0.033754   | 0.0478     |   1.1 |  0.79
Other   |            | 2.838      |            |       | 66.56

Nlocal:    1.47059 ave 4 max 0 min
Histogram: 156 0 945 0 0 972 0 101 0 2
Nghost:    29.7891 ave 39 max 22 min
Histogram: 19 78 286 246 701 556 148 126 15 1
Neighs:    10.324 ave 33 max 0 min
Histogram: 178 392 523 392 399 200 61 27 1 3

Total # of neighbors = 22465
Ave neighs/atom = 7.02031
Neighbor list builds = 601
Dangerous builds = 0
Setting up Verlet run ...
  Unit style    : lj
  Current step  : 0
  Time step     : 0.005
Per MPI rank memory allocation (min/avg/max) = 3.327 | 3.327 | 3.327 Mbytes
Step Temp c_vacf[4] v_vacf 
       0    1.0348886    2.0691304            0 
    5000      1.01618  0.010970342    0.3062452 
   10000    1.0210865 0.0018251732    0.3939561 
   15000    1.0201407 -0.0051204578   0.50191967 
   20000    1.0169872  0.032935727   0.54134779 
   25000    1.0117798  -0.01580966     0.615112 
   30000    1.0284167 -0.0089673686   0.71447644 
   35000    1.0072394 -0.027346896   0.70401385 
   40000    1.0180797 -0.024551015   0.74660961 
   45000    1.0221593 -0.0059135592   0.75865906 
   50000    1.0150177  -0.04225538   0.87981449 
   55000    1.0190131 -0.039301263   0.91325887 
   60000    1.0153908  0.068561184   0.90266577 
Loop time of 102.611 on 2176 procs for 60000 steps with 3200 atoms

Performance: 252605.021 tau/day, 584.734 timesteps/s
99.2% CPU use with 2176 MPI tasks x 1 OpenMP threads

MPI task timing breakdown:
Section |  min time  |  avg time  |  max time  |%varavg| %total
---------------------------------------------------------------
Pair    | 0.16768    | 0.17883    | 0.31559    |   4.1 |  0.17
Neigh   | 0.065229   | 0.071831   | 0.11373    |   2.4 |  0.07
Comm    | 10.696     | 20.066     | 44.496     | 175.0 | 19.56
Output  | 0.017017   | 0.017593   | 0.018575   |   0.2 |  0.02
Modify  | 37.548     | 62.382     | 71.843     |  99.7 | 60.80
Other   |            | 19.89      |            |       | 19.39

Nlocal:    1.47059 ave 4 max 0 min
Histogram: 157 0 936 0 0 987 0 94 0 2
Nghost:    29.9081 ave 38 max 20 min
Histogram: 9 24 120 260 239 579 567 278 84 16
Neighs:    10.284 ave 33 max 0 min
Histogram: 171 403 492 438 388 205 50 19 8 2

Total # of neighbors = 22378
Ave neighs/atom = 6.99313
Neighbor list builds = 7770
Dangerous builds = 0
Total wall time: 0:01:47
endTime:Mon Nov 16 13:04:13 PST 2020


Starting job in fewerNoCong policy..
startTime:Mon Nov 16 13:04:18 PST 2020

LAMMPS (20 Apr 2018)
OMP_NUM_THREADS environment is not set. Defaulting to 1 thread. (../comm.cpp:90)
  using 1 OpenMP thread(s) per MPI task
Lattice spacing in x,y,z = 1.82574 1.82574 1.82574
Created orthogonal box = (0 0 -0.182574) to (73.0297 73.0297 0.182574)
  64 by 34 by 1 MPI processor grid
Created 3200 atoms
  Time spent = 0.00428414 secs
Neighbor list info ...
  update every 1 steps, delay 0 steps, check yes
  max neighbors/atom: 2000, page size: 100000
  master list distance cutoff = 2.8
  ghost atom cutoff = 2.8
  binsize = 1.4, bins = 53 53 1
  1 neighbor lists, perpetual/occasional/extra = 1 0 0
  (1) pair lj/cut, perpetual
      attributes: half, newton on
      pair build: half/bin/atomonly/newton
      stencil: half/bin/2d/newton
      bin: standard
Setting up Verlet run ...
  Unit style    : lj
  Current step  : 0
  Time step     : 0.005
Per MPI rank memory allocation (min/avg/max) = 2.702 | 2.797 | 2.952 Mbytes
Step Temp E_pair E_mol TotEng Press 
       0            1     -1.56492            0   -0.5652325   -1.5346995 
    1000    1.0063515   -1.5732592            0  -0.56722209    1.0061204 
    2000   0.95792094   -1.5781469            0  -0.62052531   0.96571772 
    3000   0.98401573    -1.588743            0  -0.60503472   0.97094222 
    4000   0.99740124   -1.5757024            0  -0.57861287   0.99998732 
    5000    1.0348886   -1.6022633            0  -0.56769811   0.97795086 
Loop time of 1.71648 on 2176 procs for 5000 steps with 3200 atoms

Performance: 1258388.462 tau/day, 2912.936 timesteps/s
97.1% CPU use with 2176 MPI tasks x 1 OpenMP threads

MPI task timing breakdown:
Section |  min time  |  avg time  |  max time  |%varavg| %total
---------------------------------------------------------------
Pair    | 0.012279   | 0.014595   | 0.018749   |   0.6 |  0.85
Neigh   | 0.0046709  | 0.0053849  | 0.0081377  |   0.6 |  0.31
Comm    | 0.6221     | 0.71768    | 0.93393    |   6.3 | 41.81
Output  | 0.0031261  | 0.0033949  | 0.0035784  |   0.1 |  0.20
Modify  | 0.03087    | 0.033477   | 0.041454   |   0.6 |  1.95
Other   |            | 0.942      |            |       | 54.88

Nlocal:    1.47059 ave 4 max 0 min
Histogram: 156 0 945 0 0 972 0 101 0 2
Nghost:    29.7891 ave 39 max 22 min
Histogram: 19 78 286 246 701 556 148 126 15 1
Neighs:    10.324 ave 33 max 0 min
Histogram: 178 392 523 392 399 200 61 27 1 3

Total # of neighbors = 22465
Ave neighs/atom = 7.02031
Neighbor list builds = 601
Dangerous builds = 0
Setting up Verlet run ...
  Unit style    : lj
  Current step  : 0
  Time step     : 0.005
Per MPI rank memory allocation (min/avg/max) = 3.327 | 3.327 | 3.327 Mbytes
Step Temp c_vacf[4] v_vacf 
       0    1.0348886    2.0691304            0 
    5000      1.01618  0.010970342    0.3062452 
   10000    1.0210865 0.0018251732    0.3939561 
   15000    1.0201407 -0.0051204578   0.50191967 
   20000    1.0169872  0.032935727   0.54134779 
   25000    1.0117798  -0.01580966     0.615112 
   30000    1.0284167 -0.0089673686   0.71447644 
   35000    1.0072394 -0.027346896   0.70401385 
   40000    1.0180797 -0.024551015   0.74660961 
   45000    1.0221593 -0.0059135592   0.75865906 
   50000    1.0150177  -0.04225538   0.87981449 
   55000    1.0190131 -0.039301263   0.91325887 
   60000    1.0153908  0.068561184   0.90266577 
Loop time of 34.8697 on 2176 procs for 60000 steps with 3200 atoms

Performance: 743337.882 tau/day, 1720.690 timesteps/s
98.3% CPU use with 2176 MPI tasks x 1 OpenMP threads

MPI task timing breakdown:
Section |  min time  |  avg time  |  max time  |%varavg| %total
---------------------------------------------------------------
Pair    | 0.16744    | 0.17568    | 0.2463     |   1.8 |  0.50
Neigh   | 0.064701   | 0.069838   | 0.10704    |   2.2 |  0.20
Comm    | 7.7292     | 8.8693     | 10.801     |  19.1 | 25.44
Output  | 0.01158    | 0.012296   | 0.013331   |   0.3 |  0.04
Modify  | 16.41      | 18.359     | 19.487     |  13.4 | 52.65
Other   |            | 7.383      |            |       | 21.17

Nlocal:    1.47059 ave 4 max 0 min
Histogram: 157 0 936 0 0 987 0 94 0 2
Nghost:    29.9081 ave 38 max 20 min
Histogram: 9 24 120 260 239 579 567 278 84 16
Neighs:    10.284 ave 33 max 0 min
Histogram: 171 403 492 438 388 205 50 19 8 2

Total # of neighbors = 22378
Ave neighs/atom = 6.99313
Neighbor list builds = 7770
Dangerous builds = 0
Total wall time: 0:00:36
endTime:Mon Nov 16 13:05:04 PST 2020


====================
iteration 1
Starting job in nedd policy..
startTime:Mon Nov 16 13:07:42 PST 2020

LAMMPS (20 Apr 2018)
OMP_NUM_THREADS environment is not set. Defaulting to 1 thread. (../comm.cpp:90)
  using 1 OpenMP thread(s) per MPI task
Lattice spacing in x,y,z = 1.82574 1.82574 1.82574
Created orthogonal box = (0 0 -0.182574) to (73.0297 73.0297 0.182574)
  64 by 34 by 1 MPI processor grid
Created 3200 atoms
  Time spent = 0.0181241 secs
Neighbor list info ...
  update every 1 steps, delay 0 steps, check yes
  max neighbors/atom: 2000, page size: 100000
  master list distance cutoff = 2.8
  ghost atom cutoff = 2.8
  binsize = 1.4, bins = 53 53 1
  1 neighbor lists, perpetual/occasional/extra = 1 0 0
  (1) pair lj/cut, perpetual
      attributes: half, newton on
      pair build: half/bin/atomonly/newton
      stencil: half/bin/2d/newton
      bin: standard
Setting up Verlet run ...
  Unit style    : lj
  Current step  : 0
  Time step     : 0.005
Per MPI rank memory allocation (min/avg/max) = 2.702 | 2.797 | 2.952 Mbytes
Step Temp E_pair E_mol TotEng Press 
       0            1     -1.56492            0   -0.5652325   -1.5346995 
    1000    1.0063515   -1.5732592            0  -0.56722209    1.0061204 
    2000   0.95792094   -1.5781469            0  -0.62052531   0.96571772 
    3000   0.98401573    -1.588743            0  -0.60503472   0.97094222 
    4000   0.99740124   -1.5757024            0  -0.57861287   0.99998732 
    5000    1.0348886   -1.6022633            0  -0.56769811   0.97795086 
Loop time of 5.45553 on 2176 procs for 5000 steps with 3200 atoms

Performance: 395928.574 tau/day, 916.501 timesteps/s
98.9% CPU use with 2176 MPI tasks x 1 OpenMP threads

MPI task timing breakdown:
Section |  min time  |  avg time  |  max time  |%varavg| %total
---------------------------------------------------------------
Pair    | 0.01219    | 0.01486    | 0.021897   |   0.8 |  0.27
Neigh   | 0.0047653  | 0.0055051  | 0.0085735  |   0.6 |  0.10
Comm    | 1.2409     | 1.8561     | 2.9404     |  27.9 | 34.02
Output  | 0.0069022  | 0.007768   | 0.0083663  |   0.4 |  0.14
Modify  | 0.030718   | 0.033738   | 0.046686   |   1.0 |  0.62
Other   |            | 3.538      |            |       | 64.84

Nlocal:    1.47059 ave 4 max 0 min
Histogram: 156 0 945 0 0 972 0 101 0 2
Nghost:    29.7891 ave 39 max 22 min
Histogram: 19 78 286 246 701 556 148 126 15 1
Neighs:    10.324 ave 33 max 0 min
Histogram: 178 392 523 392 399 200 61 27 1 3

Total # of neighbors = 22465
Ave neighs/atom = 7.02031
Neighbor list builds = 601
Dangerous builds = 0
Setting up Verlet run ...
  Unit style    : lj
  Current step  : 0
  Time step     : 0.005
Per MPI rank memory allocation (min/avg/max) = 3.327 | 3.327 | 3.327 Mbytes
Step Temp c_vacf[4] v_vacf 
       0    1.0348886    2.0691304            0 
    5000      1.01618  0.010970342    0.3062452 
   10000    1.0210865 0.0018251732    0.3939561 
   15000    1.0201407 -0.0051204578   0.50191967 
   20000    1.0169872  0.032935727   0.54134779 
   25000    1.0117798  -0.01580966     0.615112 
   30000    1.0284167 -0.0089673686   0.71447644 
   35000    1.0072394 -0.027346896   0.70401385 
   40000    1.0180797 -0.024551015   0.74660961 
   45000    1.0221593 -0.0059135592   0.75865906 
   50000    1.0150177  -0.04225538   0.87981449 
   55000    1.0190131 -0.039301263   0.91325887 
   60000    1.0153908  0.068561184   0.90266577 
Loop time of 71.3322 on 2176 procs for 60000 steps with 3200 atoms

Performance: 363370.098 tau/day, 841.134 timesteps/s
99.0% CPU use with 2176 MPI tasks x 1 OpenMP threads

MPI task timing breakdown:
Section |  min time  |  avg time  |  max time  |%varavg| %total
---------------------------------------------------------------
Pair    | 0.16632    | 0.17837    | 0.27763    |   2.7 |  0.25
Neigh   | 0.065328   | 0.070833   | 0.10825    |   2.2 |  0.10
Comm    | 10.94      | 15.176     | 22.087     |  59.7 | 21.28
Output  | 0.010309   | 0.010581   | 0.011471   |   0.1 |  0.01
Modify  | 33.458     | 40.344     | 44.658     |  36.7 | 56.56
Other   |            | 15.55      |            |       | 21.80

Nlocal:    1.47059 ave 4 max 0 min
Histogram: 157 0 936 0 0 987 0 94 0 2
Nghost:    29.9081 ave 38 max 20 min
Histogram: 9 24 120 260 239 579 567 278 84 16
Neighs:    10.284 ave 33 max 0 min
Histogram: 171 403 492 438 388 205 50 19 8 2

Total # of neighbors = 22378
Ave neighs/atom = 6.99313
Neighbor list builds = 7770
Dangerous builds = 0
Total wall time: 0:01:17
endTime:Mon Nov 16 13:09:11 PST 2020


Starting job in lowerRouterStall policy..
startTime:Mon Nov 16 13:09:11 PST 2020

LAMMPS (20 Apr 2018)
OMP_NUM_THREADS environment is not set. Defaulting to 1 thread. (../comm.cpp:90)
  using 1 OpenMP thread(s) per MPI task
Lattice spacing in x,y,z = 1.82574 1.82574 1.82574
Created orthogonal box = (0 0 -0.182574) to (73.0297 73.0297 0.182574)
  64 by 34 by 1 MPI processor grid
Created 3200 atoms
  Time spent = 0.00671005 secs
Neighbor list info ...
  update every 1 steps, delay 0 steps, check yes
  max neighbors/atom: 2000, page size: 100000
  master list distance cutoff = 2.8
  ghost atom cutoff = 2.8
  binsize = 1.4, bins = 53 53 1
  1 neighbor lists, perpetual/occasional/extra = 1 0 0
  (1) pair lj/cut, perpetual
      attributes: half, newton on
      pair build: half/bin/atomonly/newton
      stencil: half/bin/2d/newton
      bin: standard
Setting up Verlet run ...
  Unit style    : lj
  Current step  : 0
  Time step     : 0.005
Per MPI rank memory allocation (min/avg/max) = 2.702 | 2.797 | 2.952 Mbytes
Step Temp E_pair E_mol TotEng Press 
       0            1     -1.56492            0   -0.5652325   -1.5346995 
    1000    1.0063515   -1.5732592            0  -0.56722209    1.0061204 
    2000   0.95792094   -1.5781469            0  -0.62052531   0.96571772 
    3000   0.98401573    -1.588743            0  -0.60503472   0.97094222 
    4000   0.99740124   -1.5757024            0  -0.57861287   0.99998732 
    5000    1.0348886   -1.6022633            0  -0.56769811   0.97795086 
Loop time of 2.88138 on 2176 procs for 5000 steps with 3200 atoms

Performance: 749639.603 tau/day, 1735.277 timesteps/s
98.1% CPU use with 2176 MPI tasks x 1 OpenMP threads

MPI task timing breakdown:
Section |  min time  |  avg time  |  max time  |%varavg| %total
---------------------------------------------------------------
Pair    | 0.012337   | 0.014793   | 0.0208     |   0.7 |  0.51
Neigh   | 0.0047526  | 0.0054493  | 0.0085566  |   0.6 |  0.19
Comm    | 0.78702    | 1.0865     | 1.602      |  17.1 | 37.71
Output  | 0.0061424  | 0.0063722  | 0.0065367  |   0.1 |  0.22
Modify  | 0.030533   | 0.033487   | 0.044219   |   0.8 |  1.16
Other   |            | 1.735      |            |       | 60.21

Nlocal:    1.47059 ave 4 max 0 min
Histogram: 156 0 945 0 0 972 0 101 0 2
Nghost:    29.7891 ave 39 max 22 min
Histogram: 19 78 286 246 701 556 148 126 15 1
Neighs:    10.324 ave 33 max 0 min
Histogram: 178 392 523 392 399 200 61 27 1 3

Total # of neighbors = 22465
Ave neighs/atom = 7.02031
Neighbor list builds = 601
Dangerous builds = 0
Setting up Verlet run ...
  Unit style    : lj
  Current step  : 0
  Time step     : 0.005
Per MPI rank memory allocation (min/avg/max) = 3.327 | 3.327 | 3.327 Mbytes
Step Temp c_vacf[4] v_vacf 
       0    1.0348886    2.0691304            0 
    5000      1.01618  0.010970342    0.3062452 
   10000    1.0210865 0.0018251732    0.3939561 
   15000    1.0201407 -0.0051204578   0.50191967 
   20000    1.0169872  0.032935727   0.54134779 
   25000    1.0117798  -0.01580966     0.615112 
   30000    1.0284167 -0.0089673686   0.71447644 
   35000    1.0072394 -0.027346896   0.70401385 
   40000    1.0180797 -0.024551015   0.74660961 
   45000    1.0221593 -0.0059135592   0.75865906 
   50000    1.0150177  -0.04225538   0.87981449 
   55000    1.0190131 -0.039301263   0.91325887 
   60000    1.0153908  0.068561184   0.90266577 
Loop time of 42.6333 on 2176 procs for 60000 steps with 3200 atoms

Performance: 607975.045 tau/day, 1407.350 timesteps/s
98.5% CPU use with 2176 MPI tasks x 1 OpenMP threads

MPI task timing breakdown:
Section |  min time  |  avg time  |  max time  |%varavg| %total
---------------------------------------------------------------
Pair    | 0.16737    | 0.17775    | 0.26566    |   2.2 |  0.42
Neigh   | 0.065194   | 0.070356   | 0.10997    |   2.2 |  0.17
Comm    | 8.5798     | 10.389     | 14.114     |  35.1 | 24.37
Output  | 0.010928   | 0.011196   | 0.011931   |   0.1 |  0.03
Modify  | 19.478     | 23.237     | 25.04      |  23.5 | 54.50
Other   |            | 8.748      |            |       | 20.52

Nlocal:    1.47059 ave 4 max 0 min
Histogram: 157 0 936 0 0 987 0 94 0 2
Nghost:    29.9081 ave 38 max 20 min
Histogram: 9 24 120 260 239 579 567 278 84 16
Neighs:    10.284 ave 33 max 0 min
Histogram: 171 403 492 438 388 205 50 19 8 2

Total # of neighbors = 22378
Ave neighs/atom = 6.99313
Neighbor list builds = 7770
Dangerous builds = 0
Total wall time: 0:00:45
endTime:Mon Nov 16 13:10:06 PST 2020


Starting job in fewerSwitch policy..
startTime:Mon Nov 16 13:10:06 PST 2020

LAMMPS (20 Apr 2018)
OMP_NUM_THREADS environment is not set. Defaulting to 1 thread. (../comm.cpp:90)
  using 1 OpenMP thread(s) per MPI task
Lattice spacing in x,y,z = 1.82574 1.82574 1.82574
Created orthogonal box = (0 0 -0.182574) to (73.0297 73.0297 0.182574)
  64 by 34 by 1 MPI processor grid
Created 3200 atoms
  Time spent = 0.00604892 secs
Neighbor list info ...
  update every 1 steps, delay 0 steps, check yes
  max neighbors/atom: 2000, page size: 100000
  master list distance cutoff = 2.8
  ghost atom cutoff = 2.8
  binsize = 1.4, bins = 53 53 1
  1 neighbor lists, perpetual/occasional/extra = 1 0 0
  (1) pair lj/cut, perpetual
      attributes: half, newton on
      pair build: half/bin/atomonly/newton
      stencil: half/bin/2d/newton
      bin: standard
Setting up Verlet run ...
  Unit style    : lj
  Current step  : 0
  Time step     : 0.005
Per MPI rank memory allocation (min/avg/max) = 2.702 | 2.797 | 2.952 Mbytes
Step Temp E_pair E_mol TotEng Press 
       0            1     -1.56492            0   -0.5652325   -1.5346995 
    1000    1.0063515   -1.5732592            0  -0.56722209    1.0061204 
    2000   0.95792094   -1.5781469            0  -0.62052531   0.96571772 
    3000   0.98401573    -1.588743            0  -0.60503472   0.97094222 
    4000   0.99740124   -1.5757024            0  -0.57861287   0.99998732 
    5000    1.0348886   -1.6022633            0  -0.56769811   0.97795086 
Loop time of 2.14103 on 2176 procs for 5000 steps with 3200 atoms

Performance: 1008859.246 tau/day, 2335.322 timesteps/s
97.6% CPU use with 2176 MPI tasks x 1 OpenMP threads

MPI task timing breakdown:
Section |  min time  |  avg time  |  max time  |%varavg| %total
---------------------------------------------------------------
Pair    | 0.012452   | 0.014654   | 0.019907   |   0.6 |  0.68
Neigh   | 0.0047467  | 0.0054131  | 0.0081809  |   0.6 |  0.25
Comm    | 0.69291    | 0.83613    | 1.0819     |   7.5 | 39.05
Output  | 0.0028229  | 0.0031137  | 0.003289   |   0.1 |  0.15
Modify  | 0.030805   | 0.033595   | 0.042683   |   0.7 |  1.57
Other   |            | 1.248      |            |       | 58.30

Nlocal:    1.47059 ave 4 max 0 min
Histogram: 156 0 945 0 0 972 0 101 0 2
Nghost:    29.7891 ave 39 max 22 min
Histogram: 19 78 286 246 701 556 148 126 15 1
Neighs:    10.324 ave 33 max 0 min
Histogram: 178 392 523 392 399 200 61 27 1 3

Total # of neighbors = 22465
Ave neighs/atom = 7.02031
Neighbor list builds = 601
Dangerous builds = 0
Setting up Verlet run ...
  Unit style    : lj
  Current step  : 0
  Time step     : 0.005
Per MPI rank memory allocation (min/avg/max) = 3.327 | 3.327 | 3.327 Mbytes
Step Temp c_vacf[4] v_vacf 
       0    1.0348886    2.0691304            0 
    5000      1.01618  0.010970342    0.3062452 
   10000    1.0210865 0.0018251732    0.3939561 
   15000    1.0201407 -0.0051204578   0.50191967 
   20000    1.0169872  0.032935727   0.54134779 
   25000    1.0117798  -0.01580966     0.615112 
   30000    1.0284167 -0.0089673686   0.71447644 
   35000    1.0072394 -0.027346896   0.70401385 
   40000    1.0180797 -0.024551015   0.74660961 
   45000    1.0221593 -0.0059135592   0.75865906 
   50000    1.0150177  -0.04225538   0.87981449 
   55000    1.0190131 -0.039301263   0.91325887 
   60000    1.0153908  0.068561184   0.90266577 
Loop time of 45.6999 on 2176 procs for 60000 steps with 3200 atoms

Performance: 567178.556 tau/day, 1312.913 timesteps/s
98.6% CPU use with 2176 MPI tasks x 1 OpenMP threads

MPI task timing breakdown:
Section |  min time  |  avg time  |  max time  |%varavg| %total
---------------------------------------------------------------
Pair    | 0.16712    | 0.17645    | 0.25461    |   2.2 |  0.39
Neigh   | 0.065273   | 0.070328   | 0.10689    |   2.2 |  0.15
Comm    | 8.2888     | 10.346     | 14.614     |  37.7 | 22.64
Output  | 0.012117   | 0.012739   | 0.013833   |   0.2 |  0.03
Modify  | 22.002     | 26.188     | 28.174     |  23.5 | 57.30
Other   |            | 8.906      |            |       | 19.49

Nlocal:    1.47059 ave 4 max 0 min
Histogram: 157 0 936 0 0 987 0 94 0 2
Nghost:    29.9081 ave 38 max 20 min
Histogram: 9 24 120 260 239 579 567 278 84 16
Neighs:    10.284 ave 33 max 0 min
Histogram: 171 403 492 438 388 205 50 19 8 2

Total # of neighbors = 22378
Ave neighs/atom = 6.99313
Neighbor list builds = 7770
Dangerous builds = 0
Total wall time: 0:00:47
endTime:Mon Nov 16 13:11:22 PST 2020


Starting job in random policy..
startTime:Mon Nov 16 13:11:22 PST 2020

LAMMPS (20 Apr 2018)
OMP_NUM_THREADS environment is not set. Defaulting to 1 thread. (../comm.cpp:90)
  using 1 OpenMP thread(s) per MPI task
Lattice spacing in x,y,z = 1.82574 1.82574 1.82574
Created orthogonal box = (0 0 -0.182574) to (73.0297 73.0297 0.182574)
  64 by 34 by 1 MPI processor grid
Created 3200 atoms
  Time spent = 0.006356 secs
Neighbor list info ...
  update every 1 steps, delay 0 steps, check yes
  max neighbors/atom: 2000, page size: 100000
  master list distance cutoff = 2.8
  ghost atom cutoff = 2.8
  binsize = 1.4, bins = 53 53 1
  1 neighbor lists, perpetual/occasional/extra = 1 0 0
  (1) pair lj/cut, perpetual
      attributes: half, newton on
      pair build: half/bin/atomonly/newton
      stencil: half/bin/2d/newton
      bin: standard
Setting up Verlet run ...
  Unit style    : lj
  Current step  : 0
  Time step     : 0.005
Per MPI rank memory allocation (min/avg/max) = 2.702 | 2.797 | 2.952 Mbytes
Step Temp E_pair E_mol TotEng Press 
       0            1     -1.56492            0   -0.5652325   -1.5346995 
    1000    1.0063515   -1.5732592            0  -0.56722209    1.0061204 
    2000   0.95792094   -1.5781469            0  -0.62052531   0.96571772 
    3000   0.98401573    -1.588743            0  -0.60503472   0.97094222 
    4000   0.99740124   -1.5757024            0  -0.57861287   0.99998732 
    5000    1.0348886   -1.6022633            0  -0.56769811   0.97795086 
Loop time of 4.78078 on 2176 procs for 5000 steps with 3200 atoms

Performance: 451808.941 tau/day, 1045.854 timesteps/s
98.8% CPU use with 2176 MPI tasks x 1 OpenMP threads

MPI task timing breakdown:
Section |  min time  |  avg time  |  max time  |%varavg| %total
---------------------------------------------------------------
Pair    | 0.012103   | 0.014758   | 0.022724   |   0.8 |  0.31
Neigh   | 0.0047297  | 0.0055022  | 0.0085897  |   0.6 |  0.12
Comm    | 0.9211     | 1.3633     | 2.3154     |  28.2 | 28.52
Output  | 0.0056863  | 0.01102    | 0.01378    |   2.0 |  0.23
Modify  | 0.031176   | 0.033739   | 0.047015   |   0.9 |  0.71
Other   |            | 3.352      |            |       | 70.12

Nlocal:    1.47059 ave 4 max 0 min
Histogram: 156 0 945 0 0 972 0 101 0 2
Nghost:    29.7891 ave 39 max 22 min
Histogram: 19 78 286 246 701 556 148 126 15 1
Neighs:    10.324 ave 33 max 0 min
Histogram: 178 392 523 392 399 200 61 27 1 3

Total # of neighbors = 22465
Ave neighs/atom = 7.02031
Neighbor list builds = 601
Dangerous builds = 0
Setting up Verlet run ...
  Unit style    : lj
  Current step  : 0
  Time step     : 0.005
Per MPI rank memory allocation (min/avg/max) = 3.327 | 3.327 | 3.327 Mbytes
Step Temp c_vacf[4] v_vacf 
       0    1.0348886    2.0691304            0 
    5000      1.01618  0.010970342    0.3062452 
   10000    1.0210865 0.0018251732    0.3939561 
   15000    1.0201407 -0.0051204578   0.50191967 
   20000    1.0169872  0.032935727   0.54134779 
   25000    1.0117798  -0.01580966     0.615112 
   30000    1.0284167 -0.0089673686   0.71447644 
   35000    1.0072394 -0.027346896   0.70401385 
   40000    1.0180797 -0.024551015   0.74660961 
   45000    1.0221593 -0.0059135592   0.75865906 
   50000    1.0150177  -0.04225538   0.87981449 
   55000    1.0190131 -0.039301263   0.91325887 
   60000    1.0153908  0.068561184   0.90266577 
Loop time of 62.7275 on 2176 procs for 60000 steps with 3200 atoms

Performance: 413216.015 tau/day, 956.519 timesteps/s
98.9% CPU use with 2176 MPI tasks x 1 OpenMP threads

MPI task timing breakdown:
Section |  min time  |  avg time  |  max time  |%varavg| %total
---------------------------------------------------------------
Pair    | 0.16865    | 0.17723    | 0.2725     |   2.5 |  0.28
Neigh   | 0.065374   | 0.070798   | 0.10819    |   2.2 |  0.11
Comm    | 10.556     | 13.407     | 19.678     |  55.7 | 21.37
Output  | 0.016114   | 0.016909   | 0.018355   |   0.4 |  0.03
Modify  | 30.849     | 37.175     | 40.079     |  33.6 | 59.26
Other   |            | 11.88      |            |       | 18.94

Nlocal:    1.47059 ave 4 max 0 min
Histogram: 157 0 936 0 0 987 0 94 0 2
Nghost:    29.9081 ave 38 max 20 min
Histogram: 9 24 120 260 239 579 567 278 84 16
Neighs:    10.284 ave 33 max 0 min
Histogram: 171 403 492 438 388 205 50 19 8 2

Total # of neighbors = 22378
Ave neighs/atom = 6.99313
Neighbor list builds = 7770
Dangerous builds = 0
Total wall time: 0:01:07
endTime:Mon Nov 16 13:12:38 PST 2020


Starting job in antinedd policy..
startTime:Mon Nov 16 13:12:38 PST 2020

LAMMPS (20 Apr 2018)
OMP_NUM_THREADS environment is not set. Defaulting to 1 thread. (../comm.cpp:90)
  using 1 OpenMP thread(s) per MPI task
Lattice spacing in x,y,z = 1.82574 1.82574 1.82574
Created orthogonal box = (0 0 -0.182574) to (73.0297 73.0297 0.182574)
  64 by 34 by 1 MPI processor grid
Created 3200 atoms
  Time spent = 0.00626898 secs
Neighbor list info ...
  update every 1 steps, delay 0 steps, check yes
  max neighbors/atom: 2000, page size: 100000
  master list distance cutoff = 2.8
  ghost atom cutoff = 2.8
  binsize = 1.4, bins = 53 53 1
  1 neighbor lists, perpetual/occasional/extra = 1 0 0
  (1) pair lj/cut, perpetual
      attributes: half, newton on
      pair build: half/bin/atomonly/newton
      stencil: half/bin/2d/newton
      bin: standard
Setting up Verlet run ...
  Unit style    : lj
  Current step  : 0
  Time step     : 0.005
Per MPI rank memory allocation (min/avg/max) = 2.702 | 2.797 | 2.952 Mbytes
Step Temp E_pair E_mol TotEng Press 
       0            1     -1.56492            0   -0.5652325   -1.5346995 
    1000    1.0063515   -1.5732592            0  -0.56722209    1.0061204 
    2000   0.95792094   -1.5781469            0  -0.62052531   0.96571772 
    3000   0.98401573    -1.588743            0  -0.60503472   0.97094222 
    4000   0.99740124   -1.5757024            0  -0.57861287   0.99998732 
    5000    1.0348886   -1.6022633            0  -0.56769811   0.97795086 
Loop time of 5.04082 on 2176 procs for 5000 steps with 3200 atoms

Performance: 428501.615 tau/day, 991.902 timesteps/s
98.8% CPU use with 2176 MPI tasks x 1 OpenMP threads

MPI task timing breakdown:
Section |  min time  |  avg time  |  max time  |%varavg| %total
---------------------------------------------------------------
Pair    | 0.012079   | 0.014784   | 0.022793   |   0.8 |  0.29
Neigh   | 0.0048108  | 0.0055233  | 0.0085537  |   0.7 |  0.11
Comm    | 1.1441     | 1.646      | 2.6686     |  29.5 | 32.65
Output  | 0.0061691  | 0.0067063  | 0.0071337  |   0.3 |  0.13
Modify  | 0.030922   | 0.033865   | 0.047387   |   1.0 |  0.67
Other   |            | 3.334      |            |       | 66.14

Nlocal:    1.47059 ave 4 max 0 min
Histogram: 156 0 945 0 0 972 0 101 0 2
Nghost:    29.7891 ave 39 max 22 min
Histogram: 19 78 286 246 701 556 148 126 15 1
Neighs:    10.324 ave 33 max 0 min
Histogram: 178 392 523 392 399 200 61 27 1 3

Total # of neighbors = 22465
Ave neighs/atom = 7.02031
Neighbor list builds = 601
Dangerous builds = 0
Setting up Verlet run ...
  Unit style    : lj
  Current step  : 0
  Time step     : 0.005
Per MPI rank memory allocation (min/avg/max) = 3.327 | 3.327 | 3.327 Mbytes
Step Temp c_vacf[4] v_vacf 
       0    1.0348886    2.0691304            0 
    5000      1.01618  0.010970342    0.3062452 
   10000    1.0210865 0.0018251732    0.3939561 
   15000    1.0201407 -0.0051204578   0.50191967 
   20000    1.0169872  0.032935727   0.54134779 
   25000    1.0117798  -0.01580966     0.615112 
   30000    1.0284167 -0.0089673686   0.71447644 
   35000    1.0072394 -0.027346896   0.70401385 
   40000    1.0180797 -0.024551015   0.74660961 
   45000    1.0221593 -0.0059135592   0.75865906 
   50000    1.0150177  -0.04225538   0.87981449 
   55000    1.0190131 -0.039301263   0.91325887 
   60000    1.0153908  0.068561184   0.90266577 
Loop time of 63.1861 on 2176 procs for 60000 steps with 3200 atoms

Performance: 410217.029 tau/day, 949.576 timesteps/s
98.9% CPU use with 2176 MPI tasks x 1 OpenMP threads

MPI task timing breakdown:
Section |  min time  |  avg time  |  max time  |%varavg| %total
---------------------------------------------------------------
Pair    | 0.16787    | 0.17719    | 0.26816    |   2.5 |  0.28
Neigh   | 0.064985   | 0.070849   | 0.10887    |   2.3 |  0.11
Comm    | 10.416     | 13.886     | 21.76      |  77.6 | 21.98
Output  | 0.015877   | 0.018101   | 0.019951   |   0.7 |  0.03
Modify  | 28.814     | 36.617     | 40.069     |  47.8 | 57.95
Other   |            | 12.42      |            |       | 19.65

Nlocal:    1.47059 ave 4 max 0 min
Histogram: 157 0 936 0 0 987 0 94 0 2
Nghost:    29.9081 ave 38 max 20 min
Histogram: 9 24 120 260 239 579 567 278 84 16
Neighs:    10.284 ave 33 max 0 min
Histogram: 171 403 492 438 388 205 50 19 8 2

Total # of neighbors = 22378
Ave neighs/atom = 6.99313
Neighbor list builds = 7770
Dangerous builds = 0
Total wall time: 0:01:08
endTime:Mon Nov 16 13:14:02 PST 2020


Starting job in fewerNoCong policy..
startTime:Mon Nov 16 13:14:08 PST 2020

LAMMPS (20 Apr 2018)
OMP_NUM_THREADS environment is not set. Defaulting to 1 thread. (../comm.cpp:90)
  using 1 OpenMP thread(s) per MPI task
Lattice spacing in x,y,z = 1.82574 1.82574 1.82574
Created orthogonal box = (0 0 -0.182574) to (73.0297 73.0297 0.182574)
  64 by 34 by 1 MPI processor grid
Created 3200 atoms
  Time spent = 0.00747895 secs
Neighbor list info ...
  update every 1 steps, delay 0 steps, check yes
  max neighbors/atom: 2000, page size: 100000
  master list distance cutoff = 2.8
  ghost atom cutoff = 2.8
  binsize = 1.4, bins = 53 53 1
  1 neighbor lists, perpetual/occasional/extra = 1 0 0
  (1) pair lj/cut, perpetual
      attributes: half, newton on
      pair build: half/bin/atomonly/newton
      stencil: half/bin/2d/newton
      bin: standard
Setting up Verlet run ...
  Unit style    : lj
  Current step  : 0
  Time step     : 0.005
Per MPI rank memory allocation (min/avg/max) = 2.702 | 2.797 | 2.952 Mbytes
Step Temp E_pair E_mol TotEng Press 
       0            1     -1.56492            0   -0.5652325   -1.5346995 
    1000    1.0063515   -1.5732592            0  -0.56722209    1.0061204 
    2000   0.95792094   -1.5781469            0  -0.62052531   0.96571772 
    3000   0.98401573    -1.588743            0  -0.60503472   0.97094222 
    4000   0.99740124   -1.5757024            0  -0.57861287   0.99998732 
    5000    1.0348886   -1.6022633            0  -0.56769811   0.97795086 
Loop time of 1.83686 on 2176 procs for 5000 steps with 3200 atoms

Performance: 1175919.200 tau/day, 2722.035 timesteps/s
97.2% CPU use with 2176 MPI tasks x 1 OpenMP threads

MPI task timing breakdown:
Section |  min time  |  avg time  |  max time  |%varavg| %total
---------------------------------------------------------------
Pair    | 0.012469   | 0.014733   | 0.019757   |   0.6 |  0.80
Neigh   | 0.0046656  | 0.0054029  | 0.0080471  |   0.6 |  0.29
Comm    | 0.66636    | 0.75411    | 0.91908    |   4.7 | 41.05
Output  | 0.0026219  | 0.0028763  | 0.0030117  |   0.1 |  0.16
Modify  | 0.030565   | 0.033418   | 0.044218   |   0.6 |  1.82
Other   |            | 1.026      |            |       | 55.87

Nlocal:    1.47059 ave 4 max 0 min
Histogram: 156 0 945 0 0 972 0 101 0 2
Nghost:    29.7891 ave 39 max 22 min
Histogram: 19 78 286 246 701 556 148 126 15 1
Neighs:    10.324 ave 33 max 0 min
Histogram: 178 392 523 392 399 200 61 27 1 3

Total # of neighbors = 22465
Ave neighs/atom = 7.02031
Neighbor list builds = 601
Dangerous builds = 0
Setting up Verlet run ...
  Unit style    : lj
  Current step  : 0
  Time step     : 0.005
Per MPI rank memory allocation (min/avg/max) = 3.327 | 3.327 | 3.327 Mbytes
Step Temp c_vacf[4] v_vacf 
       0    1.0348886    2.0691304            0 
    5000      1.01618  0.010970342    0.3062452 
   10000    1.0210865 0.0018251732    0.3939561 
   15000    1.0201407 -0.0051204578   0.50191967 
   20000    1.0169872  0.032935727   0.54134779 
   25000    1.0117798  -0.01580966     0.615112 
   30000    1.0284167 -0.0089673686   0.71447644 
   35000    1.0072394 -0.027346896   0.70401385 
   40000    1.0180797 -0.024551015   0.74660961 
   45000    1.0221593 -0.0059135592   0.75865906 
   50000    1.0150177  -0.04225538   0.87981449 
   55000    1.0190131 -0.039301263   0.91325887 
   60000    1.0153908  0.068561184   0.90266577 
Loop time of 37.5956 on 2176 procs for 60000 steps with 3200 atoms

Performance: 689442.093 tau/day, 1595.931 timesteps/s
98.3% CPU use with 2176 MPI tasks x 1 OpenMP threads

MPI task timing breakdown:
Section |  min time  |  avg time  |  max time  |%varavg| %total
---------------------------------------------------------------
Pair    | 0.16848    | 0.1773     | 0.26054    |   2.1 |  0.47
Neigh   | 0.064735   | 0.07012    | 0.10789    |   2.2 |  0.19
Comm    | 8.2183     | 9.2859     | 11.344     |  21.0 | 24.70
Output  | 0.010597   | 0.010928   | 0.011715   |   0.1 |  0.03
Modify  | 18.185     | 20.227     | 21.29      |  14.3 | 53.80
Other   |            | 7.824      |            |       | 20.81

Nlocal:    1.47059 ave 4 max 0 min
Histogram: 157 0 936 0 0 987 0 94 0 2
Nghost:    29.9081 ave 38 max 20 min
Histogram: 9 24 120 260 239 579 567 278 84 16
Neighs:    10.284 ave 33 max 0 min
Histogram: 171 403 492 438 388 205 50 19 8 2

Total # of neighbors = 22378
Ave neighs/atom = 6.99313
Neighbor list builds = 7770
Dangerous builds = 0
Total wall time: 0:00:39
endTime:Mon Nov 16 13:14:59 PST 2020


====================
iteration 2
Starting job in nedd policy..
startTime:Mon Nov 16 13:18:02 PST 2020

LAMMPS (20 Apr 2018)
OMP_NUM_THREADS environment is not set. Defaulting to 1 thread. (../comm.cpp:90)
  using 1 OpenMP thread(s) per MPI task
Lattice spacing in x,y,z = 1.82574 1.82574 1.82574
Created orthogonal box = (0 0 -0.182574) to (73.0297 73.0297 0.182574)
  64 by 34 by 1 MPI processor grid
Created 3200 atoms
  Time spent = 0.00892401 secs
Neighbor list info ...
  update every 1 steps, delay 0 steps, check yes
  max neighbors/atom: 2000, page size: 100000
  master list distance cutoff = 2.8
  ghost atom cutoff = 2.8
  binsize = 1.4, bins = 53 53 1
  1 neighbor lists, perpetual/occasional/extra = 1 0 0
  (1) pair lj/cut, perpetual
      attributes: half, newton on
      pair build: half/bin/atomonly/newton
      stencil: half/bin/2d/newton
      bin: standard
Setting up Verlet run ...
  Unit style    : lj
  Current step  : 0
  Time step     : 0.005
Per MPI rank memory allocation (min/avg/max) = 2.702 | 2.797 | 2.952 Mbytes
Step Temp E_pair E_mol TotEng Press 
       0            1     -1.56492            0   -0.5652325   -1.5346995 
    1000    1.0063515   -1.5732592            0  -0.56722209    1.0061204 
    2000   0.95792094   -1.5781469            0  -0.62052531   0.96571772 
    3000   0.98401573    -1.588743            0  -0.60503472   0.97094222 
    4000   0.99740124   -1.5757024            0  -0.57861287   0.99998732 
    5000    1.0348886   -1.6022633            0  -0.56769811   0.97795086 
Loop time of 2.24588 on 2176 procs for 5000 steps with 3200 atoms

Performance: 961763.224 tau/day, 2226.304 timesteps/s
97.8% CPU use with 2176 MPI tasks x 1 OpenMP threads

MPI task timing breakdown:
Section |  min time  |  avg time  |  max time  |%varavg| %total
---------------------------------------------------------------
Pair    | 0.012313   | 0.014641   | 0.01975    |   0.6 |  0.65
Neigh   | 0.0047131  | 0.0054173  | 0.0082302  |   0.6 |  0.24
Comm    | 0.66262    | 0.85159    | 1.2085     |  10.0 | 37.92
Output  | 0.0030394  | 0.003704   | 0.0048358  |   0.7 |  0.16
Modify  | 0.030952   | 0.033576   | 0.044219   |   0.7 |  1.49
Other   |            | 1.337      |            |       | 59.53

Nlocal:    1.47059 ave 4 max 0 min
Histogram: 156 0 945 0 0 972 0 101 0 2
Nghost:    29.7891 ave 39 max 22 min
Histogram: 19 78 286 246 701 556 148 126 15 1
Neighs:    10.324 ave 33 max 0 min
Histogram: 178 392 523 392 399 200 61 27 1 3

Total # of neighbors = 22465
Ave neighs/atom = 7.02031
Neighbor list builds = 601
Dangerous builds = 0
Setting up Verlet run ...
  Unit style    : lj
  Current step  : 0
  Time step     : 0.005
Per MPI rank memory allocation (min/avg/max) = 3.327 | 3.327 | 3.327 Mbytes
Step Temp c_vacf[4] v_vacf 
       0    1.0348886    2.0691304            0 
    5000      1.01618  0.010970342    0.3062452 
   10000    1.0210865 0.0018251732    0.3939561 
   15000    1.0201407 -0.0051204578   0.50191967 
   20000    1.0169872  0.032935727   0.54134779 
   25000    1.0117798  -0.01580966     0.615112 
   30000    1.0284167 -0.0089673686   0.71447644 
   35000    1.0072394 -0.027346896   0.70401385 
   40000    1.0180797 -0.024551015   0.74660961 
   45000    1.0221593 -0.0059135592   0.75865906 
   50000    1.0150177  -0.04225538   0.87981449 
   55000    1.0190131 -0.039301263   0.91325887 
   60000    1.0153908  0.068561184   0.90266577 
Loop time of 47.1038 on 2176 procs for 60000 steps with 3200 atoms

Performance: 550273.766 tau/day, 1273.782 timesteps/s
98.6% CPU use with 2176 MPI tasks x 1 OpenMP threads

MPI task timing breakdown:
Section |  min time  |  avg time  |  max time  |%varavg| %total
---------------------------------------------------------------
Pair    | 0.1669     | 0.1763     | 0.25462    |   2.4 |  0.37
Neigh   | 0.065062   | 0.070351   | 0.1081     |   2.2 |  0.15
Comm    | 8.5747     | 10.71      | 15.59      |  38.6 | 22.74
Output  | 0.011552   | 0.012158   | 0.013159   |   0.2 |  0.03
Modify  | 21.554     | 26.393     | 28.56      |  24.4 | 56.03
Other   |            | 9.742      |            |       | 20.68

Nlocal:    1.47059 ave 4 max 0 min
Histogram: 157 0 936 0 0 987 0 94 0 2
Nghost:    29.9081 ave 38 max 20 min
Histogram: 9 24 120 260 239 579 567 278 84 16
Neighs:    10.284 ave 33 max 0 min
Histogram: 171 403 492 438 388 205 50 19 8 2

Total # of neighbors = 22378
Ave neighs/atom = 6.99313
Neighbor list builds = 7770
Dangerous builds = 0
Total wall time: 0:00:49
endTime:Mon Nov 16 13:19:03 PST 2020


Starting job in lowerRouterStall policy..
startTime:Mon Nov 16 13:19:03 PST 2020

LAMMPS (20 Apr 2018)
OMP_NUM_THREADS environment is not set. Defaulting to 1 thread. (../comm.cpp:90)
  using 1 OpenMP thread(s) per MPI task
Lattice spacing in x,y,z = 1.82574 1.82574 1.82574
Created orthogonal box = (0 0 -0.182574) to (73.0297 73.0297 0.182574)
  64 by 34 by 1 MPI processor grid
Created 3200 atoms
  Time spent = 0.00597596 secs
Neighbor list info ...
  update every 1 steps, delay 0 steps, check yes
  max neighbors/atom: 2000, page size: 100000
  master list distance cutoff = 2.8
  ghost atom cutoff = 2.8
  binsize = 1.4, bins = 53 53 1
  1 neighbor lists, perpetual/occasional/extra = 1 0 0
  (1) pair lj/cut, perpetual
      attributes: half, newton on
      pair build: half/bin/atomonly/newton
      stencil: half/bin/2d/newton
      bin: standard
Setting up Verlet run ...
  Unit style    : lj
  Current step  : 0
  Time step     : 0.005
Per MPI rank memory allocation (min/avg/max) = 2.702 | 2.797 | 2.952 Mbytes
Step Temp E_pair E_mol TotEng Press 
       0            1     -1.56492            0   -0.5652325   -1.5346995 
    1000    1.0063515   -1.5732592            0  -0.56722209    1.0061204 
    2000   0.95792094   -1.5781469            0  -0.62052531   0.96571772 
    3000   0.98401573    -1.588743            0  -0.60503472   0.97094222 
    4000   0.99740124   -1.5757024            0  -0.57861287   0.99998732 
    5000    1.0348886   -1.6022633            0  -0.56769811   0.97795086 
Loop time of 2.70379 on 2176 procs for 5000 steps with 3200 atoms

Performance: 798879.810 tau/day, 1849.259 timesteps/s
97.9% CPU use with 2176 MPI tasks x 1 OpenMP threads

MPI task timing breakdown:
Section |  min time  |  avg time  |  max time  |%varavg| %total
---------------------------------------------------------------
Pair    | 0.012365   | 0.014806   | 0.020524   |   0.7 |  0.55
Neigh   | 0.0047281  | 0.0054665  | 0.0082364  |   0.6 |  0.20
Comm    | 0.7505     | 1.1431     | 1.5283     |  16.6 | 42.28
Output  | 0.0067251  | 0.0071857  | 0.0082512  |   0.5 |  0.27
Modify  | 0.03124    | 0.033525   | 0.044926   |   0.8 |  1.24
Other   |            | 1.5        |            |       | 55.47

Nlocal:    1.47059 ave 4 max 0 min
Histogram: 156 0 945 0 0 972 0 101 0 2
Nghost:    29.7891 ave 39 max 22 min
Histogram: 19 78 286 246 701 556 148 126 15 1
Neighs:    10.324 ave 33 max 0 min
Histogram: 178 392 523 392 399 200 61 27 1 3

Total # of neighbors = 22465
Ave neighs/atom = 7.02031
Neighbor list builds = 601
Dangerous builds = 0
Setting up Verlet run ...
  Unit style    : lj
  Current step  : 0
  Time step     : 0.005
Per MPI rank memory allocation (min/avg/max) = 3.327 | 3.327 | 3.327 Mbytes
Step Temp c_vacf[4] v_vacf 
       0    1.0348886    2.0691304            0 
    5000      1.01618  0.010970342    0.3062452 
   10000    1.0210865 0.0018251732    0.3939561 
   15000    1.0201407 -0.0051204578   0.50191967 
   20000    1.0169872  0.032935727   0.54134779 
   25000    1.0117798  -0.01580966     0.615112 
   30000    1.0284167 -0.0089673686   0.71447644 
   35000    1.0072394 -0.027346896   0.70401385 
   40000    1.0180797 -0.024551015   0.74660961 
   45000    1.0221593 -0.0059135592   0.75865906 
   50000    1.0150177  -0.04225538   0.87981449 
   55000    1.0190131 -0.039301263   0.91325887 
   60000    1.0153908  0.068561184   0.90266577 
Loop time of 51.228 on 2176 procs for 60000 steps with 3200 atoms

Performance: 505973.048 tau/day, 1171.234 timesteps/s
98.7% CPU use with 2176 MPI tasks x 1 OpenMP threads

MPI task timing breakdown:
Section |  min time  |  avg time  |  max time  |%varavg| %total
---------------------------------------------------------------
Pair    | 0.16686    | 0.17821    | 0.27105    |   2.6 |  0.35
Neigh   | 0.065991   | 0.070814   | 0.10615    |   2.2 |  0.14
Comm    | 8.8263     | 11.925     | 15.531     |  41.1 | 23.28
Output  | 0.010837   | 0.011266   | 0.012779   |   0.3 |  0.02
Modify  | 24.163     | 27.763     | 30.961     |  27.6 | 54.19
Other   |            | 11.28      |            |       | 22.02

Nlocal:    1.47059 ave 4 max 0 min
Histogram: 157 0 936 0 0 987 0 94 0 2
Nghost:    29.9081 ave 38 max 20 min
Histogram: 9 24 120 260 239 579 567 278 84 16
Neighs:    10.284 ave 33 max 0 min
Histogram: 171 403 492 438 388 205 50 19 8 2

Total # of neighbors = 22378
Ave neighs/atom = 6.99313
Neighbor list builds = 7770
Dangerous builds = 0
Total wall time: 0:00:54
endTime:Mon Nov 16 13:20:13 PST 2020


Starting job in fewerSwitch policy..
startTime:Mon Nov 16 13:20:13 PST 2020

LAMMPS (20 Apr 2018)
OMP_NUM_THREADS environment is not set. Defaulting to 1 thread. (../comm.cpp:90)
  using 1 OpenMP thread(s) per MPI task
Lattice spacing in x,y,z = 1.82574 1.82574 1.82574
Created orthogonal box = (0 0 -0.182574) to (73.0297 73.0297 0.182574)
  64 by 34 by 1 MPI processor grid
Created 3200 atoms
  Time spent = 0.00737214 secs
Neighbor list info ...
  update every 1 steps, delay 0 steps, check yes
  max neighbors/atom: 2000, page size: 100000
  master list distance cutoff = 2.8
  ghost atom cutoff = 2.8
  binsize = 1.4, bins = 53 53 1
  1 neighbor lists, perpetual/occasional/extra = 1 0 0
  (1) pair lj/cut, perpetual
      attributes: half, newton on
      pair build: half/bin/atomonly/newton
      stencil: half/bin/2d/newton
      bin: standard
Setting up Verlet run ...
  Unit style    : lj
  Current step  : 0
  Time step     : 0.005
Per MPI rank memory allocation (min/avg/max) = 2.702 | 2.797 | 2.952 Mbytes
Step Temp E_pair E_mol TotEng Press 
       0            1     -1.56492            0   -0.5652325   -1.5346995 
    1000    1.0063515   -1.5732592            0  -0.56722209    1.0061204 
    2000   0.95792094   -1.5781469            0  -0.62052531   0.96571772 
    3000   0.98401573    -1.588743            0  -0.60503472   0.97094222 
    4000   0.99740124   -1.5757024            0  -0.57861287   0.99998732 
    5000    1.0348886   -1.6022633            0  -0.56769811   0.97795086 
Loop time of 1.65025 on 2176 procs for 5000 steps with 3200 atoms

Performance: 1308888.730 tau/day, 3029.835 timesteps/s
97.0% CPU use with 2176 MPI tasks x 1 OpenMP threads

MPI task timing breakdown:
Section |  min time  |  avg time  |  max time  |%varavg| %total
---------------------------------------------------------------
Pair    | 0.012122   | 0.014606   | 0.019246   |   0.6 |  0.89
Neigh   | 0.0046682  | 0.0053822  | 0.008157   |   0.6 |  0.33
Comm    | 0.62829    | 0.70355    | 0.87301    |   5.4 | 42.63
Output  | 0.002851   | 0.0030938  | 0.0032425  |   0.1 |  0.19
Modify  | 0.030992   | 0.033418   | 0.041337   |   0.6 |  2.03
Other   |            | 0.8902     |            |       | 53.94

Nlocal:    1.47059 ave 4 max 0 min
Histogram: 156 0 945 0 0 972 0 101 0 2
Nghost:    29.7891 ave 39 max 22 min
Histogram: 19 78 286 246 701 556 148 126 15 1
Neighs:    10.324 ave 33 max 0 min
Histogram: 178 392 523 392 399 200 61 27 1 3

Total # of neighbors = 22465
Ave neighs/atom = 7.02031
Neighbor list builds = 601
Dangerous builds = 0
Setting up Verlet run ...
  Unit style    : lj
  Current step  : 0
  Time step     : 0.005
Per MPI rank memory allocation (min/avg/max) = 3.327 | 3.327 | 3.327 Mbytes
Step Temp c_vacf[4] v_vacf 
       0    1.0348886    2.0691304            0 
    5000      1.01618  0.010970342    0.3062452 
   10000    1.0210865 0.0018251732    0.3939561 
   15000    1.0201407 -0.0051204578   0.50191967 
   20000    1.0169872  0.032935727   0.54134779 
   25000    1.0117798  -0.01580966     0.615112 
   30000    1.0284167 -0.0089673686   0.71447644 
   35000    1.0072394 -0.027346896   0.70401385 
   40000    1.0180797 -0.024551015   0.74660961 
   45000    1.0221593 -0.0059135592   0.75865906 
   50000    1.0150177  -0.04225538   0.87981449 
   55000    1.0190131 -0.039301263   0.91325887 
   60000    1.0153908  0.068561184   0.90266577 
Loop time of 35.0997 on 2176 procs for 60000 steps with 3200 atoms

Performance: 738467.514 tau/day, 1709.416 timesteps/s
98.2% CPU use with 2176 MPI tasks x 1 OpenMP threads

MPI task timing breakdown:
Section |  min time  |  avg time  |  max time  |%varavg| %total
---------------------------------------------------------------
Pair    | 0.16712    | 0.17592    | 0.25677    |   2.1 |  0.50
Neigh   | 0.064527   | 0.069946   | 0.1085     |   2.2 |  0.20
Comm    | 7.7275     | 8.8176     | 10.991     |  25.1 | 25.12
Output  | 0.010528   | 0.010791   | 0.011644   |   0.1 |  0.03
Modify  | 16.369     | 18.599     | 19.69      |  17.3 | 52.99
Other   |            | 7.427      |            |       | 21.16

Nlocal:    1.47059 ave 4 max 0 min
Histogram: 157 0 936 0 0 987 0 94 0 2
Nghost:    29.9081 ave 38 max 20 min
Histogram: 9 24 120 260 239 579 567 278 84 16
Neighs:    10.284 ave 33 max 0 min
Histogram: 171 403 492 438 388 205 50 19 8 2

Total # of neighbors = 22378
Ave neighs/atom = 6.99313
Neighbor list builds = 7770
Dangerous builds = 0
Total wall time: 0:00:36
endTime:Mon Nov 16 13:20:59 PST 2020


Starting job in random policy..
startTime:Mon Nov 16 13:20:59 PST 2020

LAMMPS (20 Apr 2018)
OMP_NUM_THREADS environment is not set. Defaulting to 1 thread. (../comm.cpp:90)
  using 1 OpenMP thread(s) per MPI task
Lattice spacing in x,y,z = 1.82574 1.82574 1.82574
Created orthogonal box = (0 0 -0.182574) to (73.0297 73.0297 0.182574)
  64 by 34 by 1 MPI processor grid
Created 3200 atoms
  Time spent = 0.014986 secs
Neighbor list info ...
  update every 1 steps, delay 0 steps, check yes
  max neighbors/atom: 2000, page size: 100000
  master list distance cutoff = 2.8
  ghost atom cutoff = 2.8
  binsize = 1.4, bins = 53 53 1
  1 neighbor lists, perpetual/occasional/extra = 1 0 0
  (1) pair lj/cut, perpetual
      attributes: half, newton on
      pair build: half/bin/atomonly/newton
      stencil: half/bin/2d/newton
      bin: standard
Setting up Verlet run ...
  Unit style    : lj
  Current step  : 0
  Time step     : 0.005
Per MPI rank memory allocation (min/avg/max) = 2.702 | 2.797 | 2.952 Mbytes
Step Temp E_pair E_mol TotEng Press 
       0            1     -1.56492            0   -0.5652325   -1.5346995 
    1000    1.0063515   -1.5732592            0  -0.56722209    1.0061204 
    2000   0.95792094   -1.5781469            0  -0.62052531   0.96571772 
    3000   0.98401573    -1.588743            0  -0.60503472   0.97094222 
    4000   0.99740124   -1.5757024            0  -0.57861287   0.99998732 
    5000    1.0348886   -1.6022633            0  -0.56769811   0.97795086 
Loop time of 4.32671 on 2176 procs for 5000 steps with 3200 atoms

Performance: 499224.422 tau/day, 1155.612 timesteps/s
98.6% CPU use with 2176 MPI tasks x 1 OpenMP threads

MPI task timing breakdown:
Section |  min time  |  avg time  |  max time  |%varavg| %total
---------------------------------------------------------------
Pair    | 0.012133   | 0.014726   | 0.023185   |   0.8 |  0.34
Neigh   | 0.0046971  | 0.005505   | 0.0085444  |   0.7 |  0.13
Comm    | 0.74378    | 1.2628     | 2.0053     |  32.8 | 29.19
Output  | 0.01038    | 0.011399   | 0.011721   |   0.2 |  0.26
Modify  | 0.031185   | 0.033767   | 0.048916   |   1.0 |  0.78
Other   |            | 2.998      |            |       | 69.30

Nlocal:    1.47059 ave 4 max 0 min
Histogram: 156 0 945 0 0 972 0 101 0 2
Nghost:    29.7891 ave 39 max 22 min
Histogram: 19 78 286 246 701 556 148 126 15 1
Neighs:    10.324 ave 33 max 0 min
Histogram: 178 392 523 392 399 200 61 27 1 3

Total # of neighbors = 22465
Ave neighs/atom = 7.02031
Neighbor list builds = 601
Dangerous builds = 0
Setting up Verlet run ...
  Unit style    : lj
  Current step  : 0
  Time step     : 0.005
Per MPI rank memory allocation (min/avg/max) = 3.327 | 3.327 | 3.327 Mbytes
Step Temp c_vacf[4] v_vacf 
       0    1.0348886    2.0691304            0 
    5000      1.01618  0.010970342    0.3062452 
   10000    1.0210865 0.0018251732    0.3939561 
   15000    1.0201407 -0.0051204578   0.50191967 
   20000    1.0169872  0.032935727   0.54134779 
   25000    1.0117798  -0.01580966     0.615112 
   30000    1.0284167 -0.0089673686   0.71447644 
   35000    1.0072394 -0.027346896   0.70401385 
   40000    1.0180797 -0.024551015   0.74660961 
   45000    1.0221593 -0.0059135592   0.75865906 
   50000    1.0150177  -0.04225538   0.87981449 
   55000    1.0190131 -0.039301263   0.91325887 
   60000    1.0153908  0.068561184   0.90266577 
Loop time of 64.6468 on 2176 procs for 60000 steps with 3200 atoms

Performance: 400948.111 tau/day, 928.121 timesteps/s
98.9% CPU use with 2176 MPI tasks x 1 OpenMP threads

MPI task timing breakdown:
Section |  min time  |  avg time  |  max time  |%varavg| %total
---------------------------------------------------------------
Pair    | 0.16797    | 0.17702    | 0.28249    |   3.0 |  0.27
Neigh   | 0.065418   | 0.071027   | 0.11033    |   2.3 |  0.11
Comm    | 8.9268     | 13.561     | 20.893     |  78.8 | 20.98
Output  | 0.012826   | 0.013117   | 0.014102   |   0.1 |  0.02
Modify  | 30.847     | 38.174     | 42.981     |  47.0 | 59.05
Other   |            | 12.65      |            |       | 19.57

Nlocal:    1.47059 ave 4 max 0 min
Histogram: 157 0 936 0 0 987 0 94 0 2
Nghost:    29.9081 ave 38 max 20 min
Histogram: 9 24 120 260 239 579 567 278 84 16
Neighs:    10.284 ave 33 max 0 min
Histogram: 171 403 492 438 388 205 50 19 8 2

Total # of neighbors = 22378
Ave neighs/atom = 6.99313
Neighbor list builds = 7770
Dangerous builds = 0
Total wall time: 0:01:09
endTime:Mon Nov 16 13:22:17 PST 2020


Starting job in antinedd policy..
startTime:Mon Nov 16 13:22:17 PST 2020

LAMMPS (20 Apr 2018)
OMP_NUM_THREADS environment is not set. Defaulting to 1 thread. (../comm.cpp:90)
  using 1 OpenMP thread(s) per MPI task
Lattice spacing in x,y,z = 1.82574 1.82574 1.82574
Created orthogonal box = (0 0 -0.182574) to (73.0297 73.0297 0.182574)
  64 by 34 by 1 MPI processor grid
Created 3200 atoms
  Time spent = 0.0162861 secs
Neighbor list info ...
  update every 1 steps, delay 0 steps, check yes
  max neighbors/atom: 2000, page size: 100000
  master list distance cutoff = 2.8
  ghost atom cutoff = 2.8
  binsize = 1.4, bins = 53 53 1
  1 neighbor lists, perpetual/occasional/extra = 1 0 0
  (1) pair lj/cut, perpetual
      attributes: half, newton on
      pair build: half/bin/atomonly/newton
      stencil: half/bin/2d/newton
      bin: standard
Setting up Verlet run ...
  Unit style    : lj
  Current step  : 0
  Time step     : 0.005
Per MPI rank memory allocation (min/avg/max) = 2.702 | 2.797 | 2.952 Mbytes
Step Temp E_pair E_mol TotEng Press 
       0            1     -1.56492            0   -0.5652325   -1.5346995 
    1000    1.0063515   -1.5732592            0  -0.56722209    1.0061204 
    2000   0.95792094   -1.5781469            0  -0.62052531   0.96571772 
    3000   0.98401573    -1.588743            0  -0.60503472   0.97094222 
    4000   0.99740124   -1.5757024            0  -0.57861287   0.99998732 
    5000    1.0348886   -1.6022633            0  -0.56769811   0.97795086 
Loop time of 5.69866 on 2176 procs for 5000 steps with 3200 atoms

Performance: 379036.278 tau/day, 877.399 timesteps/s
98.8% CPU use with 2176 MPI tasks x 1 OpenMP threads

MPI task timing breakdown:
Section |  min time  |  avg time  |  max time  |%varavg| %total
---------------------------------------------------------------
Pair    | 0.01225    | 0.014925   | 0.023143   |   0.9 |  0.26
Neigh   | 0.0047836  | 0.0055325  | 0.0086896  |   0.7 |  0.10
Comm    | 1.123      | 2.0058     | 3.4555     |  35.6 | 35.20
Output  | 0.02105    | 0.023384   | 0.024677   |   0.3 |  0.41
Modify  | 0.03076    | 0.033849   | 0.050162   |   1.2 |  0.59
Other   |            | 3.615      |            |       | 63.44

Nlocal:    1.47059 ave 4 max 0 min
Histogram: 156 0 945 0 0 972 0 101 0 2
Nghost:    29.7891 ave 39 max 22 min
Histogram: 19 78 286 246 701 556 148 126 15 1
Neighs:    10.324 ave 33 max 0 min
Histogram: 178 392 523 392 399 200 61 27 1 3

Total # of neighbors = 22465
Ave neighs/atom = 7.02031
Neighbor list builds = 601
Dangerous builds = 0
Setting up Verlet run ...
  Unit style    : lj
  Current step  : 0
  Time step     : 0.005
Per MPI rank memory allocation (min/avg/max) = 3.327 | 3.327 | 3.327 Mbytes
Step Temp c_vacf[4] v_vacf 
       0    1.0348886    2.0691304            0 
    5000      1.01618  0.010970342    0.3062452 
   10000    1.0210865 0.0018251732    0.3939561 
   15000    1.0201407 -0.0051204578   0.50191967 
   20000    1.0169872  0.032935727   0.54134779 
   25000    1.0117798  -0.01580966     0.615112 
   30000    1.0284167 -0.0089673686   0.71447644 
   35000    1.0072394 -0.027346896   0.70401385 
   40000    1.0180797 -0.024551015   0.74660961 
   45000    1.0221593 -0.0059135592   0.75865906 
   50000    1.0150177  -0.04225538   0.87981449 
   55000    1.0190131 -0.039301263   0.91325887 
   60000    1.0153908  0.068561184   0.90266577 
Loop time of 135.031 on 2176 procs for 60000 steps with 3200 atoms

Performance: 191956.292 tau/day, 444.343 timesteps/s
99.4% CPU use with 2176 MPI tasks x 1 OpenMP threads

MPI task timing breakdown:
Section |  min time  |  avg time  |  max time  |%varavg| %total
---------------------------------------------------------------
Pair    | 0.16912    | 0.18064    | 0.3031     |   4.2 |  0.13
Neigh   | 0.064858   | 0.072032   | 0.11224    |   2.5 |  0.05
Comm    | 13.418     | 23.578     | 52.395     | 164.1 | 17.46
Output  | 0.024945   | 0.025779   | 0.027282   |   0.3 |  0.02
Modify  | 54.934     | 84.064     | 94.568     |  88.5 | 62.26
Other   |            | 27.11      |            |       | 20.08

Nlocal:    1.47059 ave 4 max 0 min
Histogram: 157 0 936 0 0 987 0 94 0 2
Nghost:    29.9081 ave 38 max 20 min
Histogram: 9 24 120 260 239 579 567 278 84 16
Neighs:    10.284 ave 33 max 0 min
Histogram: 171 403 492 438 388 205 50 19 8 2

Total # of neighbors = 22378
Ave neighs/atom = 6.99313
Neighbor list builds = 7770
Dangerous builds = 0
Total wall time: 0:02:20
endTime:Mon Nov 16 13:25:07 PST 2020


Starting job in fewerNoCong policy..
startTime:Mon Nov 16 13:25:12 PST 2020

LAMMPS (20 Apr 2018)
OMP_NUM_THREADS environment is not set. Defaulting to 1 thread. (../comm.cpp:90)
  using 1 OpenMP thread(s) per MPI task
Lattice spacing in x,y,z = 1.82574 1.82574 1.82574
Created orthogonal box = (0 0 -0.182574) to (73.0297 73.0297 0.182574)
  64 by 34 by 1 MPI processor grid
Created 3200 atoms
  Time spent = 0.00712705 secs
Neighbor list info ...
  update every 1 steps, delay 0 steps, check yes
  max neighbors/atom: 2000, page size: 100000
  master list distance cutoff = 2.8
  ghost atom cutoff = 2.8
  binsize = 1.4, bins = 53 53 1
  1 neighbor lists, perpetual/occasional/extra = 1 0 0
  (1) pair lj/cut, perpetual
      attributes: half, newton on
      pair build: half/bin/atomonly/newton
      stencil: half/bin/2d/newton
      bin: standard
Setting up Verlet run ...
  Unit style    : lj
  Current step  : 0
  Time step     : 0.005
Per MPI rank memory allocation (min/avg/max) = 2.702 | 2.797 | 2.952 Mbytes
Step Temp E_pair E_mol TotEng Press 
       0            1     -1.56492            0   -0.5652325   -1.5346995 
    1000    1.0063515   -1.5732592            0  -0.56722209    1.0061204 
    2000   0.95792094   -1.5781469            0  -0.62052531   0.96571772 
    3000   0.98401573    -1.588743            0  -0.60503472   0.97094222 
    4000   0.99740124   -1.5757024            0  -0.57861287   0.99998732 
    5000    1.0348886   -1.6022633            0  -0.56769811   0.97795086 
Loop time of 1.66715 on 2176 procs for 5000 steps with 3200 atoms

Performance: 1295627.508 tau/day, 2999.138 timesteps/s
96.9% CPU use with 2176 MPI tasks x 1 OpenMP threads

MPI task timing breakdown:
Section |  min time  |  avg time  |  max time  |%varavg| %total
---------------------------------------------------------------
Pair    | 0.012168   | 0.01463    | 0.02047    |   0.6 |  0.88
Neigh   | 0.0047441  | 0.0053977  | 0.0082526  |   0.6 |  0.32
Comm    | 0.62463    | 0.70405    | 0.88896    |   5.8 | 42.23
Output  | 0.004467   | 0.0046911  | 0.004828   |   0.1 |  0.28
Modify  | 0.030824   | 0.033465   | 0.043083   |   0.6 |  2.01
Other   |            | 0.9049     |            |       | 54.28

Nlocal:    1.47059 ave 4 max 0 min
Histogram: 156 0 945 0 0 972 0 101 0 2
Nghost:    29.7891 ave 39 max 22 min
Histogram: 19 78 286 246 701 556 148 126 15 1
Neighs:    10.324 ave 33 max 0 min
Histogram: 178 392 523 392 399 200 61 27 1 3

Total # of neighbors = 22465
Ave neighs/atom = 7.02031
Neighbor list builds = 601
Dangerous builds = 0
Setting up Verlet run ...
  Unit style    : lj
  Current step  : 0
  Time step     : 0.005
Per MPI rank memory allocation (min/avg/max) = 3.327 | 3.327 | 3.327 Mbytes
Step Temp c_vacf[4] v_vacf 
       0    1.0348886    2.0691304            0 
    5000      1.01618  0.010970342    0.3062452 
   10000    1.0210865 0.0018251732    0.3939561 
   15000    1.0201407 -0.0051204578   0.50191967 
   20000    1.0169872  0.032935727   0.54134779 
   25000    1.0117798  -0.01580966     0.615112 
   30000    1.0284167 -0.0089673686   0.71447644 
   35000    1.0072394 -0.027346896   0.70401385 
   40000    1.0180797 -0.024551015   0.74660961 
   45000    1.0221593 -0.0059135592   0.75865906 
   50000    1.0150177  -0.04225538   0.87981449 
[...]
  Unit style    : lj
  Current step  : 0
  Time step     : 0.005
Per MPI rank memory allocation (min/avg/max) = 3.327 | 3.327 | 3.327 Mbytes
Step Temp c_vacf[4] v_vacf 
       0    1.0348886    2.0691304            0 
    5000      1.01618  0.010970342    0.3062452 
   10000    1.0210865 0.0018251732    0.3939561 
   15000    1.0201407 -0.0051204578   0.50191967 
   20000    1.0169872  0.032935727   0.54134779 
   25000    1.0117798  -0.01580966     0.615112 
   30000    1.0284167 -0.0089673686   0.71447644 
   35000    1.0072394 -0.027346896   0.70401385 
   40000    1.0180797 -0.024551015   0.74660961 
   45000    1.0221593 -0.0059135592   0.75865906 
   50000    1.0150177  -0.04225538   0.87981449 
   55000    1.0190131 -0.039301263   0.91325887 
   60000    1.0153908  0.068561184   0.90266577 
Loop time of 57.4012 on 2176 procs for 60000 steps with 3200 atoms

Performance: 451558.146 tau/day, 1045.273 timesteps/s
98.8% CPU use with 2176 MPI tasks x 1 OpenMP threads

MPI task timing breakdown:
Section |  min time  |  avg time  |  max time  |%varavg| %total
---------------------------------------------------------------
Pair    | 0.16795    | 0.17669    | 0.28448    |   2.5 |  0.31
Neigh   | 0.06525    | 0.070831   | 0.10738    |   2.2 |  0.12
Comm    | 8.4227     | 11.667     | 21.227     |  79.2 | 20.33
Output  | 0.011787   | 0.012142   | 0.013031   |   0.1 |  0.02
Modify  | 25.537     | 35.076     | 38.272     |  45.5 | 61.11
Other   |            | 10.4       |            |       | 18.12

Nlocal:    1.47059 ave 4 max 0 min
Histogram: 157 0 936 0 0 987 0 94 0 2
Nghost:    29.9081 ave 38 max 20 min
Histogram: 9 24 120 260 239 579 567 278 84 16
Neighs:    10.284 ave 33 max 0 min
Histogram: 171 403 492 438 388 205 50 19 8 2

Total # of neighbors = 22378
Ave neighs/atom = 6.99313
Neighbor list builds = 7770
Dangerous builds = 0
Total wall time: 0:01:03
endTime:Mon Nov 16 15:04:39 PST 2020


Starting job in fewerSwitch policy..
startTime:Mon Nov 16 15:04:39 PST 2020

LAMMPS (20 Apr 2018)
OMP_NUM_THREADS environment is not set. Defaulting to 1 thread. (../comm.cpp:90)
  using 1 OpenMP thread(s) per MPI task
Lattice spacing in x,y,z = 1.82574 1.82574 1.82574
Created orthogonal box = (0 0 -0.182574) to (73.0297 73.0297 0.182574)
  64 by 34 by 1 MPI processor grid
Created 3200 atoms
  Time spent = 0.0106082 secs
Neighbor list info ...
  update every 1 steps, delay 0 steps, check yes
  max neighbors/atom: 2000, page size: 100000
  master list distance cutoff = 2.8
  ghost atom cutoff = 2.8
  binsize = 1.4, bins = 53 53 1
  1 neighbor lists, perpetual/occasional/extra = 1 0 0
  (1) pair lj/cut, perpetual
      attributes: half, newton on
      pair build: half/bin/atomonly/newton
      stencil: half/bin/2d/newton
      bin: standard
Setting up Verlet run ...
  Unit style    : lj
  Current step  : 0
  Time step     : 0.005
Per MPI rank memory allocation (min/avg/max) = 2.702 | 2.797 | 2.952 Mbytes
Step Temp E_pair E_mol TotEng Press 
       0            1     -1.56492            0   -0.5652325   -1.5346995 
    1000    1.0063515   -1.5732592            0  -0.56722209    1.0061204 
    2000   0.95792094   -1.5781469            0  -0.62052531   0.96571772 
    3000   0.98401573    -1.588743            0  -0.60503472   0.97094222 
    4000   0.99740124   -1.5757024            0  -0.57861287   0.99998732 
    5000    1.0348886   -1.6022633            0  -0.56769811   0.97795086 
Loop time of 2.04136 on 2176 procs for 5000 steps with 3200 atoms

Performance: 1058118.960 tau/day, 2449.349 timesteps/s
97.5% CPU use with 2176 MPI tasks x 1 OpenMP threads

MPI task timing breakdown:
Section |  min time  |  avg time  |  max time  |%varavg| %total
---------------------------------------------------------------
Pair    | 0.012386   | 0.014639   | 0.019687   |   0.6 |  0.72
Neigh   | 0.0047338  | 0.0054124  | 0.0081925  |   0.6 |  0.27
Comm    | 0.66505    | 0.79179    | 0.96765    |   6.2 | 38.79
Output  | 0.002795   | 0.0031148  | 0.0032144  |   0.1 |  0.15
Modify  | 0.031087   | 0.033534   | 0.043356   |   0.7 |  1.64
Other   |            | 1.193      |            |       | 58.44

Nlocal:    1.47059 ave 4 max 0 min
Histogram: 156 0 945 0 0 972 0 101 0 2
Nghost:    29.7891 ave 39 max 22 min
Histogram: 19 78 286 246 701 556 148 126 15 1
Neighs:    10.324 ave 33 max 0 min
Histogram: 178 392 523 392 399 200 61 27 1 3

Total # of neighbors = 22465
Ave neighs/atom = 7.02031
Neighbor list builds = 601
Dangerous builds = 0
Setting up Verlet run ...
  Unit style    : lj
  Current step  : 0
  Time step     : 0.005
Per MPI rank memory allocation (min/avg/max) = 3.327 | 3.327 | 3.327 Mbytes
Step Temp c_vacf[4] v_vacf 
       0    1.0348886    2.0691304            0 
    5000      1.01618  0.010970342    0.3062452 
   10000    1.0210865 0.0018251732    0.3939561 
   15000    1.0201407 -0.0051204578   0.50191967 
   20000    1.0169872  0.032935727   0.54134779 
   25000    1.0117798  -0.01580966     0.615112 
   30000    1.0284167 -0.0089673686   0.71447644 
   35000    1.0072394 -0.027346896   0.70401385 
   40000    1.0180797 -0.024551015   0.74660961 
   45000    1.0221593 -0.0059135592   0.75865906 
   50000    1.0150177  -0.04225538   0.87981449 
   55000    1.0190131 -0.039301263   0.91325887 
   60000    1.0153908  0.068561184   0.90266577 
Loop time of 35.7004 on 2176 procs for 60000 steps with 3200 atoms

Performance: 726042.814 tau/day, 1680.655 timesteps/s
98.2% CPU use with 2176 MPI tasks x 1 OpenMP threads

MPI task timing breakdown:
Section |  min time  |  avg time  |  max time  |%varavg| %total
---------------------------------------------------------------
Pair    | 0.16638    | 0.17608    | 0.26082    |   2.0 |  0.49
Neigh   | 0.06462    | 0.070041   | 0.10683    |   2.2 |  0.20
Comm    | 7.6871     | 8.9338     | 11.286     |  21.6 | 25.02
Output  | 0.010748   | 0.011217   | 0.012181   |   0.1 |  0.03
Modify  | 16.684     | 19.014     | 20.275     |  14.8 | 53.26
Other   |            | 7.496      |            |       | 21.00

Nlocal:    1.47059 ave 4 max 0 min
Histogram: 157 0 936 0 0 987 0 94 0 2
Nghost:    29.9081 ave 38 max 20 min
Histogram: 9 24 120 260 239 579 567 278 84 16
Neighs:    10.284 ave 33 max 0 min
Histogram: 171 403 492 438 388 205 50 19 8 2

Total # of neighbors = 22378
Ave neighs/atom = 6.99313
Neighbor list builds = 7770
Dangerous builds = 0
Total wall time: 0:00:37
endTime:Mon Nov 16 15:05:26 PST 2020


Starting job in random policy..
startTime:Mon Nov 16 15:05:27 PST 2020

LAMMPS (20 Apr 2018)
OMP_NUM_THREADS environment is not set. Defaulting to 1 thread. (../comm.cpp:90)
  using 1 OpenMP thread(s) per MPI task
Lattice spacing in x,y,z = 1.82574 1.82574 1.82574
Created orthogonal box = (0 0 -0.182574) to (73.0297 73.0297 0.182574)
  64 by 34 by 1 MPI processor grid
Created 3200 atoms
  Time spent = 0.010596 secs
Neighbor list info ...
  update every 1 steps, delay 0 steps, check yes
  max neighbors/atom: 2000, page size: 100000
  master list distance cutoff = 2.8
  ghost atom cutoff = 2.8
  binsize = 1.4, bins = 53 53 1
  1 neighbor lists, perpetual/occasional/extra = 1 0 0
  (1) pair lj/cut, perpetual
      attributes: half, newton on
      pair build: half/bin/atomonly/newton
      stencil: half/bin/2d/newton
      bin: standard
Setting up Verlet run ...
  Unit style    : lj
  Current step  : 0
  Time step     : 0.005
Per MPI rank memory allocation (min/avg/max) = 2.702 | 2.797 | 2.952 Mbytes
Step Temp E_pair E_mol TotEng Press 
       0            1     -1.56492            0   -0.5652325   -1.5346995 
    1000    1.0063515   -1.5732592            0  -0.56722209    1.0061204 
    2000   0.95792094   -1.5781469            0  -0.62052531   0.96571772 
    3000   0.98401573    -1.588743            0  -0.60503472   0.97094222 
    4000   0.99740124   -1.5757024            0  -0.57861287   0.99998732 
    5000    1.0348886   -1.6022633            0  -0.56769811   0.97795086 
Loop time of 2.65242 on 2176 procs for 5000 steps with 3200 atoms

Performance: 814351.304 tau/day, 1885.072 timesteps/s
97.9% CPU use with 2176 MPI tasks x 1 OpenMP threads

MPI task timing breakdown:
Section |  min time  |  avg time  |  max time  |%varavg| %total
---------------------------------------------------------------
Pair    | 0.01226    | 0.014667   | 0.020706   |   0.7 |  0.55
Neigh   | 0.0047462  | 0.0054599  | 0.0082469  |   0.6 |  0.21
Comm    | 0.784      | 0.96943    | 1.2214     |   9.2 | 36.55
Output  | 0.003845   | 0.004489   | 0.0050318  |   0.4 |  0.17
Modify  | 0.030944   | 0.033581   | 0.043564   |   0.8 |  1.27
Other   |            | 1.625      |            |       | 61.26

Nlocal:    1.47059 ave 4 max 0 min
Histogram: 156 0 945 0 0 972 0 101 0 2
Nghost:    29.7891 ave 39 max 22 min
Histogram: 19 78 286 246 701 556 148 126 15 1
Neighs:    10.324 ave 33 max 0 min
Histogram: 178 392 523 392 399 200 61 27 1 3

Total # of neighbors = 22465
Ave neighs/atom = 7.02031
Neighbor list builds = 601
Dangerous builds = 0
Setting up Verlet run ...
  Unit style    : lj
  Current step  : 0
  Time step     : 0.005
Per MPI rank memory allocation (min/avg/max) = 3.327 | 3.327 | 3.327 Mbytes
Step Temp c_vacf[4] v_vacf 
       0    1.0348886    2.0691304            0 
    5000      1.01618  0.010970342    0.3062452 
   10000    1.0210865 0.0018251732    0.3939561 
   15000    1.0201407 -0.0051204578   0.50191967 
   20000    1.0169872  0.032935727   0.54134779 
   25000    1.0117798  -0.01580966     0.615112 
   30000    1.0284167 -0.0089673686   0.71447644 
   35000    1.0072394 -0.027346896   0.70401385 
   40000    1.0180797 -0.024551015   0.74660961 
   45000    1.0221593 -0.0059135592   0.75865906 
   50000    1.0150177  -0.04225538   0.87981449 
   55000    1.0190131 -0.039301263   0.91325887 
   60000    1.0153908  0.068561184   0.90266577 
Loop time of 49.2641 on 2176 procs for 60000 steps with 3200 atoms

Performance: 526143.484 tau/day, 1217.925 timesteps/s
98.7% CPU use with 2176 MPI tasks x 1 OpenMP threads

MPI task timing breakdown:
Section |  min time  |  avg time  |  max time  |%varavg| %total
---------------------------------------------------------------
Pair    | 0.16779    | 0.17658    | 0.26045    |   2.4 |  0.36
Neigh   | 0.065263   | 0.070714   | 0.10648    |   2.2 |  0.14
Comm    | 8.9869     | 11.47      | 13.805     |  25.2 | 23.28
Output  | 0.013673   | 0.01402    | 0.015472   |   0.1 |  0.03
Modify  | 25.59      | 27.931     | 30.418     |  16.2 | 56.70
Other   |            | 9.603      |            |       | 19.49

Nlocal:    1.47059 ave 4 max 0 min
Histogram: 157 0 936 0 0 987 0 94 0 2
Nghost:    29.9081 ave 38 max 20 min
Histogram: 9 24 120 260 239 579 567 278 84 16
Neighs:    10.284 ave 33 max 0 min
Histogram: 171 403 492 438 388 205 50 19 8 2

Total # of neighbors = 22378
Ave neighs/atom = 6.99313
Neighbor list builds = 7770
Dangerous builds = 0
Total wall time: 0:00:52
endTime:Mon Nov 16 15:06:29 PST 2020


Starting job in antinedd policy..
startTime:Mon Nov 16 15:06:29 PST 2020

LAMMPS (20 Apr 2018)
OMP_NUM_THREADS environment is not set. Defaulting to 1 thread. (../comm.cpp:90)
  using 1 OpenMP thread(s) per MPI task
Lattice spacing in x,y,z = 1.82574 1.82574 1.82574
Created orthogonal box = (0 0 -0.182574) to (73.0297 73.0297 0.182574)
  64 by 34 by 1 MPI processor grid
Created 3200 atoms
  Time spent = 0.011528 secs
Neighbor list info ...
  update every 1 steps, delay 0 steps, check yes
  max neighbors/atom: 2000, page size: 100000
  master list distance cutoff = 2.8
  ghost atom cutoff = 2.8
  binsize = 1.4, bins = 53 53 1
  1 neighbor lists, perpetual/occasional/extra = 1 0 0
  (1) pair lj/cut, perpetual
      attributes: half, newton on
      pair build: half/bin/atomonly/newton
      stencil: half/bin/2d/newton
      bin: standard
Setting up Verlet run ...
  Unit style    : lj
  Current step  : 0
  Time step     : 0.005
Per MPI rank memory allocation (min/avg/max) = 2.702 | 2.797 | 2.952 Mbytes
Step Temp E_pair E_mol TotEng Press 
       0            1     -1.56492            0   -0.5652325   -1.5346995 
    1000    1.0063515   -1.5732592            0  -0.56722209    1.0061204 
    2000   0.95792094   -1.5781469            0  -0.62052531   0.96571772 
    3000   0.98401573    -1.588743            0  -0.60503472   0.97094222 
    4000   0.99740124   -1.5757024            0  -0.57861287   0.99998732 
    5000    1.0348886   -1.6022633            0  -0.56769811   0.97795086 
Loop time of 2.97769 on 2176 procs for 5000 steps with 3200 atoms

Performance: 725394.801 tau/day, 1679.155 timesteps/s
98.2% CPU use with 2176 MPI tasks x 1 OpenMP threads

MPI task timing breakdown:
Section |  min time  |  avg time  |  max time  |%varavg| %total
---------------------------------------------------------------
Pair    | 0.012058   | 0.0147     | 0.021841   |   0.7 |  0.49
Neigh   | 0.0047314  | 0.0054521  | 0.0082731  |   0.6 |  0.18
Comm    | 0.73706    | 1.0086     | 1.4803     |  15.9 | 33.87
Output  | 0.0063057  | 0.0064793  | 0.0066032  |   0.1 |  0.22
Modify  | 0.030937   | 0.033577   | 0.044465   |   0.8 |  1.13
Other   |            | 1.909      |            |       | 64.11

Nlocal:    1.47059 ave 4 max 0 min
Histogram: 156 0 945 0 0 972 0 101 0 2
Nghost:    29.7891 ave 39 max 22 min
Histogram: 19 78 286 246 701 556 148 126 15 1
Neighs:    10.324 ave 33 max 0 min
Histogram: 178 392 523 392 399 200 61 27 1 3

Total # of neighbors = 22465
Ave neighs/atom = 7.02031
Neighbor list builds = 601
Dangerous builds = 0
Setting up Verlet run ...
  Unit style    : lj
  Current step  : 0
  Time step     : 0.005
Per MPI rank memory allocation (min/avg/max) = 3.327 | 3.327 | 3.327 Mbytes
Step Temp c_vacf[4] v_vacf 
       0    1.0348886    2.0691304            0 
    5000      1.01618  0.010970342    0.3062452 
   10000    1.0210865 0.0018251732    0.3939561 
   15000    1.0201407 -0.0051204578   0.50191967 
   20000    1.0169872  0.032935727   0.54134779 
   25000    1.0117798  -0.01580966     0.615112 
   30000    1.0284167 -0.0089673686   0.71447644 
   35000    1.0072394 -0.027346896   0.70401385 
   40000    1.0180797 -0.024551015   0.74660961 
   45000    1.0221593 -0.0059135592   0.75865906 
   50000    1.0150177  -0.04225538   0.87981449 
   55000    1.0190131 -0.039301263   0.91325887 
   60000    1.0153908  0.068561184   0.90266577 
Loop time of 54.2754 on 2176 procs for 60000 steps with 3200 atoms

Performance: 477564.668 tau/day, 1105.474 timesteps/s
98.8% CPU use with 2176 MPI tasks x 1 OpenMP threads

MPI task timing breakdown:
Section |  min time  |  avg time  |  max time  |%varavg| %total
---------------------------------------------------------------
Pair    | 0.16823    | 0.17687    | 0.28714    |   2.3 |  0.33
Neigh   | 0.065087   | 0.070679   | 0.11106    |   2.2 |  0.13
Comm    | 8.8709     | 11.679     | 17.337     |  52.5 | 21.52
Output  | 0.010551   | 0.010924   | 0.011792   |   0.2 |  0.02
Modify  | 26.104     | 31.739     | 34.516     |  32.1 | 58.48
Other   |            | 10.6       |            |       | 19.53

Nlocal:    1.47059 ave 4 max 0 min
Histogram: 157 0 936 0 0 987 0 94 0 2
Nghost:    29.9081 ave 38 max 20 min
Histogram: 9 24 120 260 239 579 567 278 84 16
Neighs:    10.284 ave 33 max 0 min
Histogram: 171 403 492 438 388 205 50 19 8 2

Total # of neighbors = 22378
Ave neighs/atom = 6.99313
Neighbor list builds = 7770
Dangerous builds = 0
Total wall time: 0:00:57
endTime:Mon Nov 16 15:07:51 PST 2020


Starting job in fewerNoCong policy..
startTime:Mon Nov 16 15:07:57 PST 2020

LAMMPS (20 Apr 2018)
OMP_NUM_THREADS environment is not set. Defaulting to 1 thread. (../comm.cpp:90)
  using 1 OpenMP thread(s) per MPI task
Lattice spacing in x,y,z = 1.82574 1.82574 1.82574
Created orthogonal box = (0 0 -0.182574) to (73.0297 73.0297 0.182574)
  64 by 34 by 1 MPI processor grid
Created 3200 atoms
  Time spent = 0.00543404 secs
Neighbor list info ...
  update every 1 steps, delay 0 steps, check yes
  max neighbors/atom: 2000, page size: 100000
  master list distance cutoff = 2.8
  ghost atom cutoff = 2.8
  binsize = 1.4, bins = 53 53 1
  1 neighbor lists, perpetual/occasional/extra = 1 0 0
  (1) pair lj/cut, perpetual
      attributes: half, newton on
      pair build: half/bin/atomonly/newton
      stencil: half/bin/2d/newton
      bin: standard
Setting up Verlet run ...
  Unit style    : lj
  Current step  : 0
  Time step     : 0.005
Per MPI rank memory allocation (min/avg/max) = 2.702 | 2.797 | 2.952 Mbytes
Step Temp E_pair E_mol TotEng Press 
       0            1     -1.56492            0   -0.5652325   -1.5346995 
    1000    1.0063515   -1.5732592            0  -0.56722209    1.0061204 
    2000   0.95792094   -1.5781469            0  -0.62052531   0.96571772 
    3000   0.98401573    -1.588743            0  -0.60503472   0.97094222 
    4000   0.99740124   -1.5757024            0  -0.57861287   0.99998732 
    5000    1.0348886   -1.6022633            0  -0.56769811   0.97795086 
Loop time of 1.96938 on 2176 procs for 5000 steps with 3200 atoms

Performance: 1096792.561 tau/day, 2538.872 timesteps/s
97.4% CPU use with 2176 MPI tasks x 1 OpenMP threads

MPI task timing breakdown:
Section |  min time  |  avg time  |  max time  |%varavg| %total
---------------------------------------------------------------
Pair    | 0.012527   | 0.014744   | 0.019729   |   0.6 |  0.75
Neigh   | 0.0047376  | 0.0054225  | 0.0081811  |   0.6 |  0.28
Comm    | 0.64694    | 0.80735    | 0.98579    |   6.5 | 41.00
Output  | 0.0029237  | 0.0033994  | 0.0053391  |   1.0 |  0.17
Modify  | 0.030877   | 0.033432   | 0.04375    |   0.7 |  1.70
Other   |            | 1.105      |            |       | 56.11

Nlocal:    1.47059 ave 4 max 0 min
Histogram: 156 0 945 0 0 972 0 101 0 2
Nghost:    29.7891 ave 39 max 22 min
Histogram: 19 78 286 246 701 556 148 126 15 1
Neighs:    10.324 ave 33 max 0 min
Histogram: 178 392 523 392 399 200 61 27 1 3

Total # of neighbors = 22465
Ave neighs/atom = 7.02031
Neighbor list builds = 601
Dangerous builds = 0
Setting up Verlet run ...
  Unit style    : lj
  Current step  : 0
  Time step     : 0.005
Per MPI rank memory allocation (min/avg/max) = 3.327 | 3.327 | 3.327 Mbytes
Step Temp c_vacf[4] v_vacf 
       0    1.0348886    2.0691304            0 
    5000      1.01618  0.010970342    0.3062452 
   10000    1.0210865 0.0018251732    0.3939561 
   15000    1.0201407 -0.0051204578   0.50191967 
   20000    1.0169872  0.032935727   0.54134779 
   25000    1.0117798  -0.01580966     0.615112 
   30000    1.0284167 -0.0089673686   0.71447644 
   35000    1.0072394 -0.027346896   0.70401385 
   40000    1.0180797 -0.024551015   0.74660961 
   45000    1.0221593 -0.0059135592   0.75865906 
   50000    1.0150177  -0.04225538   0.87981449 
   55000    1.0190131 -0.039301263   0.91325887 
   60000    1.0153908  0.068561184   0.90266577 
Loop time of 40.0961 on 2176 procs for 60000 steps with 3200 atoms

Performance: 646446.719 tau/day, 1496.404 timesteps/s
98.4% CPU use with 2176 MPI tasks x 1 OpenMP threads

MPI task timing breakdown:
Section |  min time  |  avg time  |  max time  |%varavg| %total
---------------------------------------------------------------
Pair    | 0.16497    | 0.17745    | 0.26803    |   2.2 |  0.44
Neigh   | 0.064592   | 0.070385   | 0.10799    |   2.2 |  0.18
Comm    | 8.0671     | 9.7092     | 12.808     |  26.0 | 24.21
Output  | 0.010381   | 0.010667   | 0.011671   |   0.1 |  0.03
Modify  | 18.998     | 22.1       | 23.731     |  17.2 | 55.12
Other   |            | 8.028      |            |       | 20.02

Nlocal:    1.47059 ave 4 max 0 min
Histogram: 157 0 936 0 0 987 0 94 0 2
Nghost:    29.9081 ave 38 max 20 min
Histogram: 9 24 120 260 239 579 567 278 84 16
Neighs:    10.284 ave 33 max 0 min
Histogram: 171 403 492 438 388 205 50 19 8 2

Total # of neighbors = 22378
Ave neighs/atom = 6.99313
Neighbor list builds = 7770
Dangerous builds = 0
Total wall time: 0:00:42
endTime:Mon Nov 16 15:08:50 PST 2020


====================
iteration 12
